 TITLE = "magnetization"
 VARIABLES = "X","Y","Z","Mx","My","Mz", "SD"
 ZONE T="",  N=8298,  E=44960
 F=FEBLOCK, ET=TETRAHEDRON, VARLOCATION=([7]=CELLCENTERED)
   0.5907225E-01   0.5907225E-01   0.5907225E-01   0.5907225E-01   0.1363206E-01   0.1363206E-01  -0.1363206E-01  -0.1363206E-01   0.1363206E-01   0.1363206E-01
  -0.1363206E-01  -0.1363206E-01   0.1363206E-01   0.1363206E-01  -0.1363206E-01  -0.1363206E-01   0.1363206E-01   0.1363206E-01  -0.1363206E-01  -0.1363206E-01
  -0.3310643E-01  -0.3310643E-01  -0.5907225E-01  -0.5907225E-01  -0.3310643E-01  -0.5907225E-01  -0.5907225E-01  -0.3310643E-01   0.3310643E-01   0.3310643E-01
   0.3310643E-01   0.3310643E-01   0.5907225E-01   0.5907225E-01   0.5907225E-01   0.5907225E-01   0.5907225E-01   0.5907225E-01   0.5907225E-01   0.5907225E-01
   0.5907225E-01   0.5907225E-01   0.5907225E-01   0.5907225E-01   0.5907225E-01   0.5907225E-01   0.5907225E-01   0.5907225E-01   0.5907225E-01   0.5907225E-01
   0.5907225E-01   0.5907225E-01   0.1363206E-01   0.1363206E-01   0.1363206E-01   0.1363206E-01   0.1363206E-01   0.1363206E-01   0.8179235E-02   0.2726412E-02
  -0.2726412E-02  -0.8179235E-02  -0.1363206E-01  -0.1363206E-01  -0.1363206E-01  -0.1363206E-01  -0.1363206E-01  -0.1363206E-01   0.8179235E-02   0.2726412E-02
  -0.2726412E-02  -0.8179235E-02   0.1363206E-01   0.1363206E-01   0.1363206E-01   0.1363206E-01   0.1363206E-01   0.1363206E-01   0.8179235E-02   0.2726412E-02
  -0.2726412E-02  -0.8179235E-02  -0.1363206E-01  -0.1363206E-01  -0.1363206E-01  -0.1363206E-01  -0.1363206E-01  -0.1363206E-01   0.8179235E-02   0.2726412E-02
  -0.2726412E-02  -0.8179235E-02   0.1363206E-01   0.1363206E-01   0.1363206E-01   0.1363206E-01   0.1363206E-01   0.1363206E-01   0.8179235E-02   0.2726412E-02
  -0.2726412E-02  -0.8179235E-02  -0.1363206E-01  -0.1363206E-01  -0.1363206E-01  -0.1363206E-01  -0.1363206E-01  -0.1363206E-01   0.8179235E-02   0.2726412E-02
  -0.2726412E-02  -0.8179235E-02   0.1363206E-01   0.1363206E-01   0.1363206E-01   0.1363206E-01   0.1363206E-01   0.1363206E-01   0.8179235E-02   0.2726412E-02
  -0.2726412E-02  -0.8179235E-02  -0.1363206E-01  -0.1363206E-01  -0.1363206E-01  -0.1363206E-01  -0.1363206E-01  -0.1363206E-01   0.8179235E-02   0.2726412E-02
  -0.2726412E-02  -0.8179235E-02  -0.2986070E-01  -0.2661497E-01  -0.2336924E-01  -0.2012351E-01  -0.1687779E-01  -0.1687779E-01  -0.2012351E-01  -0.2336924E-01
  -0.2661497E-01  -0.2986070E-01  -0.5536285E-01  -0.5165345E-01  -0.4794404E-01  -0.4423464E-01  -0.4052523E-01  -0.3681583E-01  -0.5907225E-01  -0.5907225E-01
  -0.5907225E-01  -0.5907225E-01  -0.5907225E-01  -0.3681583E-01  -0.4052523E-01  -0.4423464E-01  -0.4794404E-01  -0.5165345E-01  -0.5536285E-01  -0.1687779E-01
  -0.2012351E-01  -0.2336924E-01  -0.2661497E-01  -0.2986070E-01  -0.3681583E-01  -0.4052523E-01  -0.4423464E-01  -0.4794404E-01  -0.5165345E-01  -0.5536285E-01
  -0.5907225E-01  -0.5907225E-01  -0.5907225E-01  -0.5907225E-01  -0.5907225E-01  -0.2986070E-01  -0.2661497E-01  -0.2336924E-01  -0.2012351E-01  -0.1687779E-01
  -0.5907225E-01  -0.5907225E-01  -0.5907225E-01  -0.5907225E-01  -0.5907225E-01  -0.5907225E-01  -0.5907225E-01  -0.5907225E-01  -0.5907225E-01  -0.5907225E-01
  -0.2986070E-01  -0.2661497E-01  -0.2336924E-01  -0.2012351E-01  -0.1687779E-01  -0.1687779E-01  -0.2012351E-01  -0.2336924E-01  -0.2661497E-01  -0.2986070E-01
  -0.5536285E-01  -0.5165345E-01  -0.4794404E-01  -0.4423464E-01  -0.4052523E-01  -0.3681583E-01  -0.1687779E-01  -0.2012351E-01  -0.2336924E-01  -0.2661497E-01
  -0.2986070E-01  -0.2986070E-01  -0.2661497E-01  -0.2336924E-01  -0.2012351E-01  -0.1687779E-01   0.1687779E-01   0.2012351E-01   0.2336924E-01   0.2661497E-01
   0.2986070E-01   0.2986070E-01   0.2661497E-01   0.2336924E-01   0.2012351E-01   0.1687779E-01   0.1687779E-01   0.2012351E-01   0.2336924E-01   0.2661497E-01
   0.2986070E-01   0.2986070E-01   0.2661497E-01   0.2336924E-01   0.2012351E-01   0.1687779E-01   0.3681583E-01   0.4052523E-01   0.4423464E-01   0.4794404E-01
   0.5165345E-01   0.5536285E-01   0.5536285E-01   0.5165345E-01   0.4794404E-01   0.4423464E-01   0.4052523E-01   0.3681583E-01   0.2986070E-01   0.2661497E-01
   0.2336924E-01   0.2012351E-01   0.1687779E-01   0.5536285E-01   0.5165345E-01   0.4794404E-01   0.4423464E-01   0.4052523E-01   0.3681583E-01   0.1687779E-01
   0.2012351E-01   0.2336924E-01   0.2661497E-01   0.2986070E-01   0.2986070E-01   0.2661497E-01   0.2336924E-01   0.2012351E-01   0.1687779E-01   0.3681583E-01
   0.4052523E-01   0.4423464E-01   0.4794404E-01   0.5165345E-01   0.5536285E-01   0.1687779E-01   0.2012351E-01   0.2336924E-01   0.2661497E-01   0.2986070E-01
   0.5907225E-01   0.5907225E-01   0.5907225E-01   0.5907225E-01   0.5907225E-01   0.5907225E-01   0.5907225E-01   0.5907225E-01   0.5907225E-01   0.5907225E-01
   0.5907225E-01   0.5907225E-01   0.5907225E-01   0.5907225E-01   0.5907225E-01   0.5907225E-01   0.5907225E-01   0.5907225E-01   0.5907225E-01   0.5907225E-01
   0.5907225E-01   0.5907225E-01   0.5907225E-01   0.5907225E-01   0.5907225E-01   0.9276312E-02   0.5396861E-02   0.9355467E-02   0.9355467E-02   0.9355467E-02
   0.9275810E-02  -0.5248682E-02  -0.9355467E-02  -0.9355467E-02   0.0000000E+00  -0.9355467E-02  -0.9355467E-02  -0.5249004E-02   0.5378111E-02   0.0000000E+00
  -0.9355467E-02   0.2275815E-02  -0.2128512E-02  -0.5093951E-02  -0.4612786E-02  -0.5103543E-02  -0.4606697E-02  -0.2110897E-02   0.5253058E-02   0.5078876E-02
   0.5078876E-02   0.2315267E-02   0.5260747E-02  -0.9724245E-02   0.1013105E-01  -0.9723996E-02   0.1013337E-01   0.3073617E-03   0.3754205E-03   0.2958670E-03
   0.9355467E-02   0.9275799E-02   0.9355467E-02   0.9355467E-02   0.5395915E-02   0.9275810E-02  -0.9355467E-02  -0.9263118E-02  -0.5249457E-02   0.0000000E+00
   0.0000000E+00  -0.9355467E-02  -0.5363335E-02   0.5378058E-02  -0.9355467E-02  -0.9355467E-02  -0.5104149E-02  -0.4613314E-02  -0.2118663E-02   0.2274262E-02
  -0.2135214E-02  -0.5082285E-02  -0.4612363E-02   0.2309086E-02   0.5252999E-02   0.5078876E-02   0.5254891E-02   0.5078876E-02  -0.9724192E-02   0.1013104E-01
  -0.1012575E-01   0.1013311E-01   0.2995666E-03   0.3747173E-03   0.2945954E-03   0.9276312E-02   0.5396861E-02   0.9355467E-02   0.9355467E-02   0.9355467E-02
   0.9275796E-02  -0.5248682E-02  -0.9355467E-02  -0.9355467E-02   0.0000000E+00  -0.9355467E-02   0.0000000E+00  -0.5248053E-02   0.5395894E-02  -0.9355467E-02
  -0.9355467E-02  -0.5103822E-02  -0.2108429E-02   0.2309532E-02  -0.4612588E-02  -0.5103543E-02  -0.4606690E-02  -0.2110897E-02   0.5254706E-02   0.5078876E-02
   0.5078876E-02   0.2315268E-02   0.5260747E-02  -0.9723795E-02   0.1013310E-01  -0.9723996E-02   0.1013337E-01   0.3073888E-03   0.3755856E-03   0.2975076E-03
   0.9355467E-02   0.9275798E-02   0.9355467E-02   0.9355467E-02   0.5395869E-02   0.9275797E-02   0.7206964E-17  -0.9355467E-02  -0.9263219E-02   0.5395910E-02
  -0.9355467E-02  -0.5363809E-02  -0.9263119E-02  -0.9355467E-02   0.7206964E-17  -0.5363335E-02  -0.2118636E-02  -0.5082307E-02  -0.4612800E-02   0.2308978E-02
  -0.5093146E-02  -0.4612401E-02  -0.2125458E-02   0.2307180E-02   0.5254817E-02   0.5078876E-02   0.5254784E-02   0.5078876E-02  -0.1012575E-01  -0.1012581E-01
   0.1013311E-01   0.1013310E-01   0.2981531E-03   0.3748292E-03   0.2988104E-03  -0.5546512E-01  -0.1712388E-01  -0.1712388E-01  -0.1705849E-01  -0.3328713E-01
  -0.1705849E-01  -0.2030422E-01  -0.3004140E-01  -0.2679567E-01  -0.2354995E-01  -0.2030422E-01  -0.1712388E-01  -0.4434343E-01  -0.1712388E-01  -0.2354995E-01
  -0.1712388E-01  -0.3692462E-01  -0.3328713E-01  -0.2679567E-01  -0.5546512E-01  -0.5546512E-01  -0.4063403E-01  -0.3004140E-01  -0.4805283E-01  -0.5176224E-01
  -0.5546512E-01  -0.5176224E-01  -0.5546512E-01  -0.3692462E-01  -0.4063403E-01  -0.4434343E-01  -0.4805283E-01  -0.5546512E-01  -0.4445222E-01  -0.4074282E-01
  -0.3703341E-01  -0.5185799E-01  -0.4816162E-01  -0.4816162E-01  -0.5185799E-01  -0.5186231E-01  -0.3022210E-01  -0.3346783E-01  -0.3703341E-01  -0.2697638E-01
  -0.4074282E-01  -0.4445222E-01  -0.2061570E-01  -0.2061570E-01  -0.2373065E-01  -0.2697638E-01  -0.3022210E-01  -0.2373065E-01  -0.2056243E-01  -0.3338601E-01
  -0.2048492E-01  -0.2061570E-01  -0.2061570E-01  -0.5185799E-01  -0.5185799E-01  -0.4825085E-01  -0.2410752E-01  -0.2399135E-01  -0.2396981E-01  -0.3361060E-01
  -0.3040281E-01  -0.2715708E-01  -0.2410752E-01  -0.2410752E-01  -0.4085161E-01  -0.2715708E-01  -0.3714220E-01  -0.3353892E-01  -0.3040281E-01  -0.4823033E-01
  -0.4825085E-01  -0.4456101E-01  -0.4827438E-01  -0.3714220E-01  -0.4456101E-01  -0.4085161E-01  -0.4096040E-01  -0.3725100E-01  -0.3366959E-01  -0.4466771E-01
  -0.4467186E-01  -0.3380373E-01  -0.3058166E-01  -0.3725100E-01  -0.4096040E-01  -0.2759934E-01  -0.2747898E-01  -0.2737030E-01  -0.3058351E-01  -0.2759934E-01
  -0.4464372E-01  -0.4101310E-01  -0.3082073E-01  -0.3396233E-01  -0.3091778E-01  -0.3087226E-01  -0.3740807E-01  -0.3383357E-01  -0.4103598E-01  -0.3735979E-01
  -0.3756326E-01  -0.3393190E-01  -0.3422233E-01  -0.3004140E-01  -0.2030422E-01  -0.2354995E-01  -0.2679567E-01  -0.3692462E-01  -0.3328713E-01  -0.1705849E-01
  -0.4063403E-01  -0.5176224E-01  -0.5545858E-01  -0.4805283E-01  -0.5546512E-01  -0.5546512E-01  -0.5546512E-01  -0.5546512E-01  -0.4434343E-01  -0.5546512E-01
  -0.5176224E-01  -0.4805283E-01  -0.4434343E-01  -0.3692462E-01  -0.3325469E-01  -0.4063403E-01  -0.3004140E-01  -0.2679567E-01  -0.2030422E-01  -0.1705849E-01
  -0.2354995E-01  -0.1712388E-01  -0.1712388E-01  -0.1712388E-01  -0.1712388E-01  -0.1712388E-01  -0.2061570E-01  -0.2061570E-01  -0.2061570E-01  -0.2061570E-01
  -0.2056243E-01  -0.2373065E-01  -0.2697638E-01  -0.3022210E-01  -0.3344579E-01  -0.3703341E-01  -0.4074282E-01  -0.4445222E-01  -0.4816162E-01  -0.5186231E-01
  -0.5185799E-01  -0.5185799E-01  -0.5185799E-01  -0.4445222E-01  -0.5184458E-01  -0.4816162E-01  -0.4074282E-01  -0.2056243E-01  -0.3338601E-01  -0.3703341E-01
  -0.2697638E-01  -0.2373065E-01  -0.3022210E-01  -0.3361060E-01  -0.2396981E-01  -0.2715708E-01  -0.3040281E-01  -0.3714220E-01  -0.4825494E-01  -0.4085161E-01
  -0.4456101E-01  -0.4825085E-01  -0.4825085E-01  -0.4823033E-01  -0.4456101E-01  -0.4085161E-01  -0.3714220E-01  -0.3354669E-01  -0.3040281E-01  -0.2715708E-01
  -0.2396981E-01  -0.2410752E-01  -0.2410752E-01  -0.2410752E-01  -0.2747241E-01  -0.2759934E-01  -0.2759934E-01  -0.2747241E-01  -0.3058351E-01  -0.3378176E-01
  -0.3725100E-01  -0.4096040E-01  -0.4466875E-01  -0.4464372E-01  -0.4461888E-01  -0.4096040E-01  -0.3725100E-01  -0.3366959E-01  -0.3058351E-01  -0.3083377E-01
  -0.3396233E-01  -0.3752907E-01  -0.4113426E-01  -0.4101464E-01  -0.3744886E-01  -0.3386186E-01  -0.3083377E-01  -0.3109117E-01  -0.3430397E-01  -0.3435303E-01
  -0.3761885E-01  -0.5907225E-01  -0.5907225E-01  -0.5907225E-01  -0.5907225E-01  -0.5907225E-01  -0.5907225E-01  -0.5907225E-01  -0.5907225E-01  -0.5907225E-01
  -0.5907225E-01  -0.5907225E-01  -0.5907225E-01  -0.5907225E-01  -0.5907225E-01  -0.5907225E-01  -0.5907225E-01  -0.5907225E-01  -0.5907225E-01  -0.5907225E-01
  -0.5907225E-01  -0.5907225E-01  -0.5907225E-01  -0.5907225E-01  -0.5907225E-01  -0.5907225E-01  -0.2354995E-01  -0.1712388E-01  -0.1712388E-01  -0.3328713E-01
  -0.1705849E-01  -0.1705849E-01  -0.2030422E-01  -0.3004140E-01  -0.2679567E-01  -0.2354995E-01  -0.2030422E-01  -0.2679567E-01  -0.1712388E-01  -0.1712388E-01
  -0.3692462E-01  -0.3325469E-01  -0.1712388E-01  -0.5546512E-01  -0.5546512E-01  -0.5546512E-01  -0.4434343E-01  -0.4063403E-01  -0.3004140E-01  -0.5546512E-01
  -0.5176224E-01  -0.4805283E-01  -0.5176224E-01  -0.5545858E-01  -0.3692462E-01  -0.4063403E-01  -0.4434343E-01  -0.4805283E-01  -0.5546512E-01  -0.4445222E-01
  -0.4074282E-01  -0.3703341E-01  -0.5184458E-01  -0.4816162E-01  -0.4816162E-01  -0.5185799E-01  -0.4074282E-01  -0.4445222E-01  -0.5185799E-01  -0.5185799E-01
  -0.5186231E-01  -0.3344579E-01  -0.3703341E-01  -0.2061570E-01  -0.2061570E-01  -0.3022210E-01  -0.2373065E-01  -0.2697638E-01  -0.3022210E-01  -0.2056243E-01
  -0.2048492E-01  -0.3338601E-01  -0.2061570E-01  -0.2061570E-01  -0.2697638E-01  -0.2373065E-01  -0.2715708E-01  -0.2410752E-01  -0.2399135E-01  -0.2396981E-01
  -0.3361060E-01  -0.3040281E-01  -0.2715708E-01  -0.3040281E-01  -0.2410752E-01  -0.2410752E-01  -0.3354703E-01  -0.4823033E-01  -0.4825085E-01  -0.3714220E-01
  -0.4085161E-01  -0.4825085E-01  -0.4456101E-01  -0.4824956E-01  -0.3714220E-01  -0.4456101E-01  -0.4085161E-01  -0.4096040E-01  -0.3725100E-01  -0.3366959E-01
  -0.4464310E-01  -0.4466875E-01  -0.4096040E-01  -0.3725100E-01  -0.4464372E-01  -0.3367978E-01  -0.2759934E-01  -0.2747241E-01  -0.2737030E-01  -0.3058351E-01
  -0.2759934E-01  -0.3058351E-01  -0.3083377E-01  -0.3081806E-01  -0.3396233E-01  -0.3393921E-01  -0.3082172E-01  -0.4101464E-01  -0.3736781E-01  -0.4099630E-01
  -0.3735979E-01  -0.3747373E-01  -0.3392578E-01  -0.3387709E-01  -0.4434343E-01  -0.4063403E-01  -0.3692462E-01  -0.3004140E-01  -0.3328713E-01  -0.1705849E-01
  -0.2679567E-01  -0.2354995E-01  -0.2030422E-01  -0.5546512E-01  -0.5546512E-01  -0.4805283E-01  -0.5176224E-01  -0.4805283E-01  -0.5176224E-01  -0.5546512E-01
  -0.5546512E-01  -0.5546512E-01  -0.5546512E-01  -0.4434343E-01  -0.3004140E-01  -0.3328713E-01  -0.4063403E-01  -0.3692462E-01  -0.2679567E-01  -0.2030422E-01
  -0.1709942E-01  -0.2354995E-01  -0.1712388E-01  -0.1712388E-01  -0.1712388E-01  -0.1712388E-01  -0.1712388E-01  -0.2061570E-01  -0.2061570E-01  -0.2061570E-01
  -0.2061570E-01  -0.2055929E-01  -0.2373065E-01  -0.2697638E-01  -0.3703341E-01  -0.3338601E-01  -0.3022210E-01  -0.4074282E-01  -0.5185799E-01  -0.5185799E-01
  -0.5185799E-01  -0.4445222E-01  -0.4816162E-01  -0.4816162E-01  -0.5186231E-01  -0.5185799E-01  -0.2373065E-01  -0.2697638E-01  -0.2056243E-01  -0.3346783E-01
  -0.3022210E-01  -0.3703341E-01  -0.4445222E-01  -0.4074282E-01  -0.4085161E-01  -0.3714220E-01  -0.3353892E-01  -0.3040281E-01  -0.2715708E-01  -0.2396981E-01
  -0.4823033E-01  -0.4456101E-01  -0.4456101E-01  -0.4828047E-01  -0.4825085E-01  -0.4825085E-01  -0.4085161E-01  -0.3361060E-01  -0.3714220E-01  -0.3040281E-01
  -0.2715708E-01  -0.2398188E-01  -0.2410752E-01  -0.2410752E-01  -0.2410752E-01  -0.2747241E-01  -0.2759934E-01  -0.2759934E-01  -0.2747869E-01  -0.3058351E-01
  -0.3366993E-01  -0.3725100E-01  -0.4467737E-01  -0.4463672E-01  -0.4096040E-01  -0.4466366E-01  -0.3058351E-01  -0.3380373E-01  -0.3725100E-01  -0.4096040E-01
  -0.3747007E-01  -0.3385590E-01  -0.3083377E-01  -0.4106500E-01  -0.4110047E-01  -0.3749611E-01  -0.3387398E-01  -0.3084838E-01  -0.3109117E-01  -0.3430945E-01
  -0.3430735E-01  -0.3745749E-01   0.1494375E-01   0.5593839E-02  -0.1862251E-01  -0.1476798E-01   0.1147682E-01   0.1862251E-01   0.2186824E-01   0.2511397E-01
  -0.2186824E-01  -0.2514447E-01  -0.1387779E-16  -0.5482407E-02  -0.1102555E-01  -0.1115437E-01  -0.1512884E-01  -0.1862251E-01  -0.2186824E-01  -0.2511397E-01
   0.1147767E-01   0.5611174E-02   0.1734723E-17  -0.5725524E-02   0.2186824E-01   0.2514121E-01   0.1862251E-01   0.1487973E-01   0.1356892E-01   0.2006750E-01
   0.1708465E-01  -0.3035166E-02   0.2726412E-02   0.8908743E-02  -0.1381743E-01  -0.9649500E-02  -0.8761485E-02  -0.2726412E-02  -0.2015722E-01  -0.1712150E-01
   0.1712150E-01  -0.1356479E-01  -0.1712150E-01   0.2762135E-02   0.8930950E-02   0.1358717E-01  -0.1347214E-01   0.1302491E-01   0.9638568E-02   0.5342736E-02
  -0.2775558E-16  -0.5156141E-02  -0.9601027E-02   0.5219502E-02  -0.3484213E-03   0.9637734E-02   0.7315561E-02   0.3000030E-02  -0.9037040E-02  -0.2530313E-02
   0.2532442E-02   0.6764525E-02  -0.5820604E-02  -0.9530578E-02  -0.8161533E-03  -0.6202787E-02  -0.4786620E-02   0.1494344E-01   0.1111012E-01   0.2511397E-01
   0.1147416E-01  -0.1476769E-01   0.1734723E-17  -0.2511397E-01  -0.2186824E-01  -0.1862251E-01  -0.5480311E-02  -0.1102555E-01  -0.1862251E-01  -0.2186824E-01
  -0.2514489E-01   0.5610996E-02  -0.1147799E-01   0.1862251E-01   0.5722631E-02  -0.1488238E-01   0.1734723E-17  -0.5611644E-02   0.2186824E-01   0.2514728E-01
   0.2186824E-01   0.1862251E-01   0.1507348E-01   0.1378006E-01   0.1712150E-01   0.2019807E-01  -0.2726412E-02   0.3038333E-02   0.1712150E-01  -0.8921166E-02
  -0.2011595E-01  -0.1712150E-01  -0.8746619E-02  -0.1362143E-01  -0.1712150E-01   0.2760999E-02  -0.2726412E-02  -0.1357239E-01   0.8940180E-02   0.9622814E-02
   0.1358920E-01  -0.1312634E-01   0.1343410E-01   0.9578679E-02   0.5356999E-02   0.1734723E-17  -0.5142731E-02  -0.9644566E-02  -0.5283828E-02   0.2869706E-03
   0.9445288E-02   0.8873971E-02  -0.2784064E-02  -0.6946070E-02  -0.2749937E-02   0.2540107E-02   0.6222559E-02  -0.9324631E-02   0.5701699E-02   0.7955801E-03
  -0.7852810E-02   0.4367404E-02   0.4434343E-01   0.4063403E-01   0.3692462E-01   0.3004140E-01   0.3328713E-01   0.1705849E-01   0.2679567E-01   0.2354995E-01
   0.2030422E-01   0.5546512E-01   0.5546512E-01   0.4805283E-01   0.5176224E-01   0.4805283E-01   0.5176224E-01   0.5546512E-01   0.5546512E-01   0.5546512E-01
   0.5546512E-01   0.4434343E-01   0.3004140E-01   0.3328713E-01   0.4063403E-01   0.3692462E-01   0.2679567E-01   0.2030422E-01   0.1709942E-01   0.2354995E-01
   0.1712388E-01   0.1712388E-01   0.1712388E-01   0.1712388E-01   0.1712388E-01   0.2061570E-01   0.2061570E-01   0.2061570E-01   0.2061570E-01   0.2055929E-01
   0.2373065E-01   0.2697638E-01   0.3703341E-01   0.3338601E-01   0.3022210E-01   0.4074282E-01   0.5185799E-01   0.5185799E-01   0.5185799E-01   0.4445222E-01
   0.4816162E-01   0.4816162E-01   0.5186231E-01   0.5185799E-01   0.2373065E-01   0.2697638E-01   0.2056243E-01   0.3346783E-01   0.3022210E-01   0.3703341E-01
   0.4445222E-01   0.4074282E-01   0.4085161E-01   0.3714220E-01   0.3353892E-01   0.3040281E-01   0.2715708E-01   0.2396981E-01   0.4823033E-01   0.4456101E-01
   0.4456101E-01   0.4828047E-01   0.4825085E-01   0.4825085E-01   0.4085161E-01   0.3361060E-01   0.3714220E-01   0.3040281E-01   0.2715708E-01   0.2398188E-01
   0.2410752E-01   0.2410752E-01   0.2410752E-01   0.2747241E-01   0.2759934E-01   0.2759934E-01   0.2747869E-01   0.3058351E-01   0.3366993E-01   0.3725100E-01
   0.4467737E-01   0.4463672E-01   0.4096040E-01   0.4466366E-01   0.3058351E-01   0.3380373E-01   0.3725100E-01   0.4096040E-01   0.3747007E-01   0.3385590E-01
   0.3083377E-01   0.4106500E-01   0.4110047E-01   0.3749611E-01   0.3387398E-01   0.3084838E-01   0.3109117E-01   0.3430945E-01   0.3430735E-01   0.3745749E-01
   0.5546512E-01   0.1712388E-01   0.1712388E-01   0.1705849E-01   0.3328713E-01   0.1705849E-01   0.2030422E-01   0.3004140E-01   0.2679567E-01   0.2354995E-01
   0.2030422E-01   0.1712388E-01   0.4434343E-01   0.1712388E-01   0.2354995E-01   0.1712388E-01   0.3692462E-01   0.3328713E-01   0.2679567E-01   0.5546512E-01
   0.5546512E-01   0.4063403E-01   0.3004140E-01   0.4805283E-01   0.5176224E-01   0.5546512E-01   0.5176224E-01   0.5546512E-01   0.3692462E-01   0.4063403E-01
   0.4434343E-01   0.4805283E-01   0.5546512E-01   0.4445222E-01   0.4074282E-01   0.3703341E-01   0.5185799E-01   0.4816162E-01   0.4816162E-01   0.5185799E-01
   0.5186231E-01   0.3022210E-01   0.3346783E-01   0.3703341E-01   0.2697638E-01   0.4074282E-01   0.4445222E-01   0.2061570E-01   0.2061570E-01   0.2373065E-01
   0.2697638E-01   0.3022210E-01   0.2373065E-01   0.2056243E-01   0.3338601E-01   0.2048492E-01   0.2061570E-01   0.2061570E-01   0.5185799E-01   0.5185799E-01
   0.4825085E-01   0.2410752E-01   0.2399135E-01   0.2396981E-01   0.3361060E-01   0.3040281E-01   0.2715708E-01   0.2410752E-01   0.2410752E-01   0.4085161E-01
   0.2715708E-01   0.3714220E-01   0.3353892E-01   0.3040281E-01   0.4823033E-01   0.4825085E-01   0.4456101E-01   0.4827438E-01   0.3714220E-01   0.4085161E-01
   0.4456101E-01   0.4096040E-01   0.3725100E-01   0.3366959E-01   0.4466771E-01   0.4467186E-01   0.3380373E-01   0.3058166E-01   0.3725100E-01   0.4096040E-01
   0.2759934E-01   0.2747898E-01   0.2737030E-01   0.3058351E-01   0.2759934E-01   0.4464372E-01   0.4101310E-01   0.3082073E-01   0.3396233E-01   0.3091778E-01
   0.3087226E-01   0.3740807E-01   0.3383357E-01   0.4103598E-01   0.3735979E-01   0.3756326E-01   0.3393190E-01   0.3422233E-01   0.1494342E-01   0.1111012E-01
   0.2511397E-01   0.1147416E-01  -0.1476769E-01   0.1734723E-17  -0.2186824E-01  -0.1862251E-01  -0.5452823E-02  -0.1102555E-01  -0.1862251E-01  -0.2186824E-01
  -0.2514489E-01  -0.2511397E-01   0.5610996E-02  -0.1147799E-01   0.1862251E-01   0.5722629E-02  -0.1488238E-01   0.1734723E-17  -0.5611644E-02   0.2186824E-01
   0.2514436E-01   0.2186824E-01   0.1862251E-01   0.1507349E-01   0.1377988E-01   0.1712150E-01   0.2015659E-01  -0.2726412E-02   0.3038329E-02   0.1712150E-01
  -0.8921166E-02  -0.2011595E-01  -0.1712150E-01  -0.8745322E-02  -0.1362143E-01  -0.1712150E-01   0.2760998E-02  -0.2726412E-02  -0.1357239E-01   0.8940179E-02
   0.9622761E-02   0.1358899E-01  -0.1312634E-01   0.1342995E-01   0.9578257E-02   0.5356955E-02   0.1734723E-17  -0.5142731E-02  -0.9644566E-02  -0.5283831E-02
   0.2869458E-03   0.9444457E-02   0.8872567E-02  -0.2784064E-02  -0.6946070E-02  -0.2749937E-02   0.2540098E-02   0.6222535E-02  -0.9324631E-02   0.5701526E-02
   0.7955592E-03  -0.7852810E-02   0.4367125E-02   0.3004140E-01   0.2030422E-01   0.2354995E-01   0.2679567E-01   0.3692462E-01   0.3328713E-01   0.1705849E-01
   0.4063403E-01   0.5176224E-01   0.5545858E-01   0.4805283E-01   0.5546512E-01   0.5546512E-01   0.5546512E-01   0.5546512E-01   0.4434343E-01   0.5546512E-01
   0.5176224E-01   0.4805283E-01   0.4434343E-01   0.3692462E-01   0.3325469E-01   0.4063403E-01   0.3004140E-01   0.2679567E-01   0.2030422E-01   0.1705849E-01
   0.2354995E-01   0.1712388E-01   0.1712388E-01   0.1712388E-01   0.1712388E-01   0.1712388E-01   0.2061570E-01   0.2061570E-01   0.2061570E-01   0.2061570E-01
   0.2056243E-01   0.2373065E-01   0.2697638E-01   0.3022210E-01   0.3344579E-01   0.3703341E-01   0.4074282E-01   0.4445222E-01   0.4816162E-01   0.5186231E-01
   0.5185799E-01   0.5185799E-01   0.5185799E-01   0.4445222E-01   0.5184458E-01   0.4816162E-01   0.4074282E-01   0.2056243E-01   0.3338601E-01   0.3703341E-01
   0.2697638E-01   0.2373065E-01   0.3022210E-01   0.3361060E-01   0.2396981E-01   0.2715708E-01   0.3040281E-01   0.3714220E-01   0.4825494E-01   0.4085161E-01
   0.4456101E-01   0.4825085E-01   0.4825085E-01   0.4823033E-01   0.4456101E-01   0.4085161E-01   0.3714220E-01   0.3354669E-01   0.3040281E-01   0.2715708E-01
   0.2396981E-01   0.2410752E-01   0.2410752E-01   0.2410752E-01   0.2747241E-01   0.2759934E-01   0.2759934E-01   0.2747241E-01   0.3058351E-01   0.3378176E-01
   0.3725100E-01   0.4096040E-01   0.4466875E-01   0.4464372E-01   0.4461888E-01   0.4096040E-01   0.3725100E-01   0.3366959E-01   0.3058351E-01   0.3083377E-01
   0.3396233E-01   0.3752907E-01   0.4113426E-01   0.4101464E-01   0.3744886E-01   0.3386186E-01   0.3083377E-01   0.3109117E-01   0.3430397E-01   0.3435303E-01
   0.3761885E-01   0.1494376E-01   0.5593839E-02  -0.1111018E-01  -0.1862251E-01  -0.1476797E-01   0.1147693E-01   0.1862251E-01   0.2186824E-01   0.2511397E-01
  -0.2511397E-01  -0.2186824E-01  -0.5482412E-02  -0.1102555E-01   0.1734723E-17  -0.1512709E-01  -0.1862251E-01  -0.2186824E-01  -0.2514725E-01   0.1147756E-01
   0.5611174E-02   0.1734723E-17  -0.5722588E-02   0.2514121E-01   0.2186824E-01   0.1862251E-01   0.1487969E-01   0.1356789E-01   0.1712150E-01   0.2006816E-01
  -0.3035301E-02   0.2726412E-02   0.8908530E-02  -0.2019855E-01  -0.1712150E-01  -0.1381759E-01  -0.8761520E-02  -0.2726412E-02   0.1712150E-01  -0.1356499E-01
  -0.1712150E-01  -0.9648983E-02   0.2762014E-02   0.8930881E-02   0.1358826E-01  -0.1347750E-01   0.1302502E-01   0.9677768E-02   0.5341213E-02   0.1734723E-17
  -0.5155992E-02  -0.9601455E-02   0.5217473E-02  -0.3626975E-03   0.9601939E-02   0.6806611E-02   0.2817626E-02  -0.9038229E-02  -0.2474776E-02   0.2776058E-02
   0.7267668E-02  -0.9531437E-02  -0.5822194E-02  -0.8298983E-03  -0.6201921E-02  -0.4786430E-02   0.2354995E-01   0.1712388E-01   0.1712388E-01   0.1712388E-01
   0.3328713E-01   0.1705849E-01   0.1705849E-01   0.2030422E-01   0.3004140E-01   0.2679567E-01   0.2354995E-01   0.2030422E-01   0.1712388E-01   0.1712388E-01
   0.3692462E-01   0.3325469E-01   0.2679567E-01   0.5546512E-01   0.5546512E-01   0.5546512E-01   0.4434343E-01   0.4063403E-01   0.3004140E-01   0.5546512E-01
   0.5176224E-01   0.4805283E-01   0.5176224E-01   0.5545858E-01   0.3692462E-01   0.4063403E-01   0.4434343E-01   0.4805283E-01   0.5546512E-01   0.4445222E-01
   0.4074282E-01   0.3703341E-01   0.5184458E-01   0.4816162E-01   0.4816162E-01   0.5185799E-01   0.4074282E-01   0.4445222E-01   0.5185799E-01   0.5185799E-01
   0.5186231E-01   0.3022210E-01   0.3344579E-01   0.3703341E-01   0.2061570E-01   0.2373065E-01   0.2697638E-01   0.3022210E-01   0.2056243E-01   0.2048492E-01
   0.3338601E-01   0.2061570E-01   0.2061570E-01   0.2061570E-01   0.2697638E-01   0.2373065E-01   0.2715708E-01   0.2410752E-01   0.2410752E-01   0.2399135E-01
   0.2396981E-01   0.3361060E-01   0.3040281E-01   0.2715708E-01   0.2410752E-01   0.3354669E-01   0.3040281E-01   0.4823033E-01   0.4825085E-01   0.3714220E-01
   0.4085161E-01   0.4825085E-01   0.4456101E-01   0.4824956E-01   0.3714220E-01   0.4456101E-01   0.4085161E-01   0.4096040E-01   0.3725100E-01   0.3366959E-01
   0.4464310E-01   0.4466875E-01   0.4096040E-01   0.3725100E-01   0.4464372E-01   0.3378176E-01   0.2747241E-01   0.2737030E-01   0.3058351E-01   0.2759934E-01
   0.2759934E-01   0.3058351E-01   0.3083377E-01   0.3082456E-01   0.3081820E-01   0.3396233E-01   0.3397225E-01   0.4101464E-01   0.3737034E-01   0.4099630E-01
   0.3735979E-01   0.3746967E-01   0.3392632E-01   0.3386879E-01  -0.2956477E-02   0.4361495E-03  -0.3101441E-02  -0.2873002E-02  -0.6753287E-03   0.2350896E-02
   0.1496108E-02  -0.2060206E-02  -0.1957445E-02  -0.5496865E-02   0.5513981E-01  -0.2773633E-02  -0.3909878E-02  -0.3927752E-02   0.1130183E-02  -0.1222000E-02
  -0.7366173E-03   0.2199238E-02  -0.6122336E-03  -0.2203392E-01  -0.1810490E-01  -0.1598188E-01  -0.2103444E-01  -0.3944093E-01  -0.3691831E-01  -0.3914312E-01
  -0.3518574E-01  -0.2138694E-01  -0.2228020E-01  -0.1939302E-01  -0.2508014E-01  -0.2532833E-01  -0.1711206E-01   0.5583539E-01   0.5532843E-01   0.5591387E-01
   0.5245073E-01  -0.1557324E-01  -0.8414492E-02  -0.9703648E-02  -0.7180601E-02  -0.5122878E-02  -0.6709919E-02  -0.2530150E-02  -0.5287698E-02  -0.2879771E-02
  -0.5489897E-01  -0.5251576E-02  -0.6753162E-02  -0.8515075E-02  -0.5891413E-02  -0.1016631E-01  -0.6858993E-02  -0.1276700E-01  -0.8756464E-02  -0.4974344E-02
  -0.5885669E-02  -0.1129154E-01  -0.8493412E-02  -0.9876132E-02  -0.8965257E-02   0.3994476E-02   0.6442481E-02   0.2201728E-02   0.4174911E-02   0.9212881E-02
   0.4004588E-02   0.5633985E-02   0.7862868E-02  -0.7508563E-02  -0.9167920E-02  -0.9662951E-02  -0.6818157E-02  -0.3648651E-02  -0.5634437E-02  -0.9627960E-02
   0.1002597E-01   0.1526775E-01   0.1034560E-01   0.1274886E-01   0.1687044E-01   0.1263816E-01   0.1420101E-01   0.1031547E-01   0.1490396E-01  -0.1178559E-01
   0.1154069E-01   0.9516794E-02   0.9921351E-02   0.1170954E-01   0.1694317E-01   0.1273745E-01   0.1370942E-01   0.7068110E-02   0.1514731E-01  -0.6686184E-02
  -0.3718418E-02  -0.1927936E-02  -0.6142805E-03   0.9768317E-02   0.6624025E-02   0.1068019E-01   0.6572029E-02   0.4359182E-02   0.8277012E-03   0.2384651E-02
   0.3686952E-01   0.3953010E-01   0.3615441E-01   0.3743728E-01  -0.8587902E-03   0.2256419E-02   0.6033060E-02   0.3650991E-02  -0.1492861E-01  -0.1100394E-01
  -0.1255419E-01  -0.9515449E-02  -0.1664143E-01  -0.1450290E-01  -0.1301093E-01   0.1771269E-01   0.1596504E-01   0.1826406E-01   0.2156843E-01  -0.1549236E-01
  -0.1075885E-01  -0.1095689E-01   0.1819732E-01   0.2257935E-01   0.1766247E-01   0.2135113E-01  -0.1559649E-01   0.2530781E-02   0.2216417E-02   0.5697193E-02
   0.6946531E-02   0.9304220E-02   0.5246696E-02   0.6726646E-02   0.7462682E-02  -0.1417736E-01  -0.1271775E-01  -0.9979311E-02  -0.1192057E-01  -0.1084161E-01
  -0.1675764E-01  -0.8683551E-02  -0.1048046E-01   0.4289658E-01   0.4023590E-01   0.4357517E-01   0.3901220E-01   0.1817407E-02   0.1707636E-02  -0.2729173E-02
  -0.6932006E-02  -0.5150810E-02  -0.8476370E-02  -0.1310889E-01  -0.1221919E-01  -0.2018253E-01  -0.2083227E-01   0.1449455E-01   0.1328678E-01   0.1026054E-01
   0.1039470E-01  -0.1907299E-01  -0.1959555E-01  -0.1496968E-01  -0.1551837E-01  -0.1719259E-01   0.3429576E-02   0.4893471E-02  -0.2545890E-02  -0.5471224E-02
  -0.8517340E-03  -0.8542980E-02  -0.6132301E-02   0.8230525E-03   0.2255289E-02   0.4207040E-02   0.7947660E-03  -0.5896072E-03   0.2006487E-02   0.5507652E-02
   0.6378605E-02   0.3933181E-02   0.7337308E-02   0.9319916E-02   0.4439082E-03   0.4774641E-02   0.5427099E-02   0.3378252E-02   0.9765342E-02  -0.7667282E-02
  -0.1234492E-01  -0.1449381E-01  -0.1272704E-01   0.1613709E-01  -0.3411567E-01  -0.3749419E-01   0.5671109E-02   0.6364329E-02   0.7950551E-02   0.3936416E-02
   0.5472361E-02   0.7020698E-03  -0.2755832E-02   0.1920699E-02  -0.1303899E-02   0.4361085E-02   0.2777440E-02   0.1634054E-02   0.5021295E-02  -0.1375447E-02
   0.4794503E-02   0.2107274E-02   0.1158682E-02  -0.1774836E-02  -0.1489635E-02   0.2141610E-02  -0.1352223E-02   0.2987548E-02   0.3846278E-02   0.5666770E-02
   0.2650254E-02   0.5349126E-02   0.5241865E-02   0.9011275E-02   0.6714658E-02   0.2825308E-02   0.2455143E-02   0.1215884E-02   0.4711449E-02   0.8940027E-02
   0.8520247E-02   0.8522266E-02   0.1215644E-01   0.5240744E-02   0.7897253E-02  -0.8782304E-04   0.5591565E-02   0.4402496E-02   0.6108136E-02   0.7687905E-02
  -0.1337367E-01  -0.1216706E-01  -0.1533413E-01  -0.1180880E-01   0.8325200E-02   0.3521040E-02   0.1065216E-01   0.9682139E-02   0.9033563E-02   0.8251374E-02