 TITLE = "/geos/d20/shared/alemoor/williams/MMDatabase/magnetite/cubo000/lems/100nm/70C/100nm_70C_mag_0042"
 VARIABLES = "X","Y","Z","Mx","My","Mz"
 ZONE T="0.000"  N=8273,  E=44746, F=FEPOINT, ET=TETRAHEDRON
   0.0000000E+00  -2.2596233E-02   5.2724544E-02  -6.6294998E-01   6.3996007E-01   3.8852083E-01
  -2.2596233E-02   0.0000000E+00   5.2724544E-02  -6.1396192E-01   7.7201089E-01  -1.6446866E-01
  -5.2724544E-02   0.0000000E+00   2.2596233E-02  -1.6669226E-01   7.7295638E-01  -6.1217001E-01
  -5.2724544E-02  -2.2596233E-02   0.0000000E+00  -3.8483162E-02   9.0819961E-01  -4.1676434E-01
  -2.2596233E-02  -5.2724544E-02   0.0000000E+00  -6.2691324E-01   6.0493930E-01   4.9094626E-01
   0.0000000E+00  -5.2724544E-02   2.2596233E-02  -6.6344683E-01   3.8685661E-01   6.4045317E-01
   0.0000000E+00   2.2596233E-02  -5.2724544E-02   7.7039743E-01  -6.1490085E-01  -1.6847773E-01
  -2.2596233E-02   0.0000000E+00  -5.2724544E-02   9.0846917E-01  -4.1587282E-01  -4.1636099E-02
   2.2596233E-02   0.0000000E+00  -5.2724544E-02   6.4013194E-01  -6.6343676E-01   3.8740517E-01
   0.0000000E+00  -2.2596233E-02  -5.2724544E-02   4.9310004E-01  -6.2620404E-01   6.0392122E-01
   5.2724544E-02   0.0000000E+00  -2.2596233E-02   3.9024073E-01  -6.6251706E-01   6.3936165E-01
   5.2724544E-02  -2.2596233E-02   0.0000000E+00  -1.6768671E-01  -6.1370817E-01   7.7152022E-01
   2.2596233E-02  -5.2724544E-02   0.0000000E+00  -6.1277614E-01  -1.6728326E-01   7.7234818E-01
   0.0000000E+00  -5.2724544E-02  -2.2596233E-02  -4.1704684E-01  -3.9266808E-02   9.0803637E-01
   0.0000000E+00   5.2724544E-02  -2.2596233E-02   7.7191833E-01  -1.6431802E-01  -6.1411862E-01
   2.2596233E-02   5.2724544E-02   0.0000000E+00   9.0815704E-01  -4.1816989E-02  -4.1653586E-01
   5.2724544E-02   2.2596233E-02   0.0000000E+00   6.0327132E-01  -6.2657620E-01   4.9342272E-01
   2.2596233E-02   0.0000000E+00   5.2724544E-02  -6.2609778E-01   4.9355158E-01   6.0366249E-01
   0.0000000E+00   2.2596233E-02   5.2724544E-02  -4.1697816E-01   9.0813871E-01  -3.7593865E-02
   0.0000000E+00   5.2724544E-02   2.2596233E-02   4.9429644E-01   6.0285889E-01  -6.2628443E-01
  -2.2596233E-02   5.2724544E-02   0.0000000E+00   6.3968499E-01   3.9149012E-01  -6.6146700E-01
  -5.2724544E-02   2.2596233E-02   0.0000000E+00   3.8907745E-01   6.4096857E-01  -6.6164796E-01
   5.2724544E-02   0.0000000E+00   2.2596233E-02  -3.9329980E-02  -4.1931467E-01   9.0698862E-01
  -5.2724544E-02   0.0000000E+00  -2.2596233E-02   6.0316734E-01   4.9446952E-01  -6.2585066E-01
  -3.7660388E-03  -1.8830194E-02   5.2724544E-02  -6.7376925E-01   6.6421456E-01   3.2381170E-01
  -7.5320777E-03  -1.5064155E-02   5.2724544E-02  -6.7896954E-01   6.9926435E-01   2.2367329E-01
  -1.1298117E-02  -1.1298117E-02   5.2724544E-02  -6.7238057E-01   7.3107558E-01   1.1590026E-01
  -1.5064155E-02  -7.5320777E-03   5.2724544E-02  -6.5623148E-01   7.5452637E-01   7.0853513E-03
  -1.8830194E-02  -3.7660388E-03   5.2724544E-02  -6.3331755E-01   7.6805991E-01  -9.4830694E-02
  -2.5943823E-02   0.0000000E+00   4.9376954E-02  -5.9866924E-01   7.6867991E-01  -2.2522510E-01
  -2.9291413E-02   0.0000000E+00   4.6029364E-02  -5.7006171E-01   7.6569405E-01  -2.9789641E-01
  -3.2639003E-02   0.0000000E+00   4.2681774E-02  -5.3011158E-01   7.6509419E-01  -3.6553056E-01
  -3.5986593E-02   0.0000000E+00   3.9334184E-02  -4.8461309E-01   7.6281618E-01  -4.2809068E-01
  -3.9334184E-02   0.0000000E+00   3.5986593E-02  -4.2752640E-01   7.6440459E-01  -4.8260418E-01
  -4.2681774E-02   0.0000000E+00   3.2639003E-02  -3.6611111E-01   7.6505521E-01  -5.2976711E-01
  -4.6029364E-02   0.0000000E+00   2.9291413E-02  -2.9973108E-01   7.6527015E-01  -5.6966910E-01
  -4.9376954E-02   0.0000000E+00   2.5943823E-02  -2.2366263E-01   7.6955814E-01  -5.9812649E-01
  -5.2724544E-02  -3.7660388E-03   1.8830194E-02  -1.4695958E-01   7.8967325E-01  -5.9566688E-01
  -5.2724544E-02  -7.5320777E-03   1.5064155E-02  -1.2673901E-01   8.1667691E-01  -5.6300626E-01
  -5.2724544E-02  -1.1298117E-02   1.1298117E-02  -9.9602384E-02   8.4415592E-01  -5.2676385E-01
  -5.2724544E-02  -1.5064155E-02   7.5320777E-03  -7.3121447E-02   8.7073107E-01  -4.8629276E-01
  -5.2724544E-02  -1.8830194E-02   3.7660388E-03  -4.8410509E-02   8.9265850E-01  -4.4812635E-01
  -4.9376954E-02  -2.5943823E-02   0.0000000E+00  -1.0315518E-01   9.3305484E-01  -3.4462687E-01
  -4.6029364E-02  -2.9291413E-02   0.0000000E+00  -1.8651682E-01   9.5302615E-01  -2.3864751E-01
  -4.2681774E-02  -3.2639003E-02   0.0000000E+00  -2.7359349E-01   9.5474551E-01  -1.1665167E-01
  -3.9334184E-02  -3.5986593E-02   0.0000000E+00  -3.5711788E-01   9.3400256E-01   1.0297204E-02
  -3.5986593E-02  -3.9334184E-02   0.0000000E+00  -4.3600023E-01   8.8994208E-01   1.3381668E-01
  -3.2639003E-02  -4.2681774E-02   0.0000000E+00  -5.0680338E-01   8.2776864E-01   2.4072685E-01
  -2.9291413E-02  -4.6029364E-02   0.0000000E+00  -5.6114744E-01   7.5223394E-01   3.4533701E-01
  -2.5943823E-02  -4.9376954E-02   0.0000000E+00  -6.0277786E-01   6.7218210E-01   4.2991868E-01
  -1.8830194E-02  -5.2724544E-02   3.7660388E-03  -6.4206522E-01   5.6232476E-01   5.2109799E-01
  -1.5064155E-02  -5.2724544E-02   7.5320777E-03  -6.5893848E-01   5.1293121E-01   5.5018329E-01
  -1.1298117E-02  -5.2724544E-02   1.1298117E-02  -6.6989147E-01   4.6927372E-01   5.7534997E-01
  -7.5320777E-03  -5.2724544E-02   1.5064155E-02  -6.7430094E-01   4.3098635E-01   5.9964074E-01
  -3.7660388E-03  -5.2724544E-02   1.8830194E-02  -6.7038467E-01   4.0063661E-01   6.2455961E-01
   0.0000000E+00  -4.9376954E-02   2.5943823E-02  -6.4638112E-01   4.2729491E-01   6.3214754E-01
   0.0000000E+00  -4.6029364E-02   2.9291413E-02  -6.2873929E-01   4.7028764E-01   6.1928704E-01
   0.0000000E+00  -4.2681774E-02   3.2639003E-02  -6.1660392E-01   5.1068445E-01   5.9916692E-01
   0.0000000E+00  -3.9334184E-02   3.5986593E-02  -6.1060692E-01   5.4504269E-01   5.7453255E-01
   0.0000000E+00  -3.5986593E-02   3.9334184E-02  -6.1019866E-01   5.7424999E-01   5.4579717E-01
   0.0000000E+00  -3.2639003E-02   4.2681774E-02  -6.1623485E-01   5.9872347E-01   5.1164912E-01
   0.0000000E+00  -2.9291413E-02   4.6029364E-02  -6.2889871E-01   6.1819810E-01   4.7150560E-01
   0.0000000E+00  -2.5943823E-02   4.9376954E-02  -6.4642296E-01   6.3219488E-01   4.2716154E-01
  -3.7660388E-03   1.8830194E-02  -5.2724544E-02   7.8906420E-01  -5.9610340E-01  -1.4845345E-01
  -7.5320777E-03   1.5064155E-02  -5.2724544E-02   8.1684609E-01  -5.6229755E-01  -1.2877866E-01
  -1.1298117E-02   1.1298117E-02  -5.2724544E-02   8.4416983E-01  -5.2639401E-01  -1.0142310E-01
  -1.5064155E-02   7.5320777E-03  -5.2724544E-02   8.7123645E-01  -4.8504009E-01  -7.5386744E-02
  -1.8830194E-02   3.7660388E-03  -5.2724544E-02   8.9268540E-01  -4.4817365E-01  -4.7467392E-02
   1.8830194E-02   3.7660388E-03  -5.2724544E-02   6.6338684E-01  -6.7461710E-01   3.2374322E-01
   1.5064155E-02   7.5320777E-03  -5.2724544E-02   6.9854340E-01  -6.7979872E-01   2.2340731E-01
   1.1298117E-02   1.1298117E-02  -5.2724544E-02   7.3068988E-01  -6.7281455E-01   1.1581400E-01
   7.5320777E-03   1.5064155E-02  -5.2724544E-02   7.5354880E-01  -6.5736080E-01   6.4020949E-03
   3.7660388E-03   1.8830194E-02  -5.2724544E-02   7.6698275E-01  -6.3462565E-01  -9.4803711E-02
   3.7660388E-03  -1.8830194E-02  -5.2724544E-02   5.2152690E-01  -6.4190258E-01   5.6211278E-01
   7.5320777E-03  -1.5064155E-02  -5.2724544E-02   5.4745641E-01  -6.5839054E-01   5.1653981E-01
   1.1298117E-02  -1.1298117E-02  -5.2724544E-02   5.7309690E-01  -6.7083190E-01   4.7068515E-01
   1.5064155E-02  -7.5320777E-03  -5.2724544E-02   5.9947476E-01  -6.7452043E-01   4.3087376E-01
   1.8830194E-02  -3.7660388E-03  -5.2724544E-02   6.2505326E-01  -6.7111197E-01   3.9864412E-01
  -1.8830194E-02  -3.7660388E-03  -5.2724544E-02   8.7968235E-01  -4.7362305E-01   4.2897106E-02
  -1.5064155E-02  -7.5320777E-03  -5.2724544E-02   8.2610266E-01  -5.3825530E-01   1.6684012E-01
  -1.1298117E-02  -1.1298117E-02  -5.2724544E-02   7.5226579E-01  -5.8644544E-01   3.0029640E-01
  -7.5320777E-03  -1.5064155E-02  -5.2724544E-02   6.6136887E-01  -6.1757119E-01   4.2567247E-01
  -3.7660388E-03  -1.8830194E-02  -5.2724544E-02   5.6369329E-01  -6.3023665E-01   5.3390227E-01
   2.5943823E-02   0.0000000E+00  -4.9376954E-02   6.3118131E-01  -6.4598733E-01   4.2931402E-01
   2.9291413E-02   0.0000000E+00  -4.6029364E-02   6.1738940E-01  -6.2939601E-01   4.7190147E-01
   3.2639003E-02   0.0000000E+00  -4.2681774E-02   5.9849855E-01  -6.1707622E-01   5.1089767E-01
   3.5986593E-02   0.0000000E+00  -3.9334184E-02   5.7391520E-01  -6.1104177E-01   5.4520573E-01
   3.9334184E-02   0.0000000E+00  -3.5986593E-02   5.4477861E-01  -6.1094202E-01   5.7442677E-01
   4.2681774E-02   0.0000000E+00  -3.2639003E-02   5.1036888E-01  -6.1748570E-01   5.9852737E-01
   4.6029364E-02   0.0000000E+00  -2.9291413E-02   4.7101086E-01  -6.2969573E-01   6.1776376E-01
   4.9376954E-02   0.0000000E+00  -2.5943823E-02   4.2856584E-01  -6.4608266E-01   6.3159204E-01
   5.2724544E-02  -3.7660388E-03  -1.8830194E-02   3.2135277E-01  -6.7466631E-01   6.6449814E-01
   5.2724544E-02  -7.5320777E-03  -1.5064155E-02   2.2258337E-01  -6.8044831E-01   6.9817386E-01
   5.2724544E-02  -1.1298117E-02  -1.1298117E-02   1.1462436E-01  -6.7364068E-01   7.3011608E-01
   5.2724544E-02  -1.5064155E-02  -7.5320777E-03   5.5573924E-03  -6.5768070E-01   7.5327632E-01
   5.2724544E-02  -1.8830194E-02  -3.7660388E-03  -9.5737650E-02  -6.3416827E-01   7.6724501E-01
   4.9376954E-02  -2.5943823E-02   0.0000000E+00  -2.2455364E-01  -6.0105006E-01   7.6701662E-01
   4.6029364E-02  -2.9291413E-02   0.0000000E+00  -2.9715478E-01  -5.7072123E-01   7.6549090E-01
   4.2681774E-02  -3.2639003E-02   0.0000000E+00  -3.6748690E-01  -5.3136797E-01   7.6328334E-01
   3.9334184E-02  -3.5986593E-02   0.0000000E+00  -4.2784656E-01  -4.8381042E-01   7.6346238E-01
   3.5986593E-02  -3.9334184E-02   0.0000000E+00  -4.8551670E-01  -4.3134343E-01   7.6040541E-01
   3.2639003E-02  -4.2681774E-02   0.0000000E+00  -5.3096484E-01  -3.6687555E-01   7.6385775E-01
   2.9291413E-02  -4.6029364E-02   0.0000000E+00  -5.7017284E-01  -2.9891857E-01   7.6521279E-01
   2.5943823E-02  -4.9376954E-02   0.0000000E+00  -5.9891224E-01  -2.2469168E-01   7.6864672E-01
   1.8830194E-02  -5.2724544E-02  -3.7660388E-03  -5.9594734E-01  -1.4854665E-01   7.8916453E-01
   1.5064155E-02  -5.2724544E-02  -7.5320777E-03  -5.6261012E-01  -1.2825586E-01   8.1671310E-01
   1.1298117E-02  -5.2724544E-02  -1.1298117E-02  -5.2557311E-01  -1.0120294E-01   8.4470757E-01
   7.5320777E-03  -5.2724544E-02  -1.5064155E-02  -4.8689850E-01  -7.4309736E-02   8.7029186E-01
   3.7660388E-03  -5.2724544E-02  -1.8830194E-02  -4.4913230E-01  -4.8564530E-02   8.9214442E-01
   0.0000000E+00  -4.9376954E-02  -2.5943823E-02  -3.4548548E-01  -1.0338674E-01   9.3271162E-01
   0.0000000E+00  -4.6029364E-02  -2.9291413E-02  -2.3854406E-01  -1.9010204E-01   9.5234340E-01
   0.0000000E+00  -4.2681774E-02  -3.2639003E-02  -1.1750913E-01  -2.7357132E-01   9.5464671E-01
   0.0000000E+00  -3.9334184E-02  -3.5986593E-02   9.3872720E-03  -3.5815264E-01   9.3361586E-01
   0.0000000E+00  -3.5986593E-02  -3.9334184E-02   1.3152639E-01  -4.3586457E-01   8.9034987E-01
   0.0000000E+00  -3.2639003E-02  -4.2681774E-02   2.4462193E-01  -5.0489194E-01   8.2779480E-01
   0.0000000E+00  -2.9291413E-02  -4.6029364E-02   3.4469780E-01  -5.6046377E-01   7.5303638E-01
   0.0000000E+00  -2.5943823E-02  -4.9376954E-02   4.3141318E-01  -6.0258855E-01   6.7139386E-01
   0.0000000E+00   4.9376954E-02  -2.5943823E-02   7.6716698E-01  -2.2469372E-01  -6.0080575E-01
   0.0000000E+00   4.6029364E-02  -2.9291413E-02   7.6612987E-01  -2.9721369E-01  -5.6983247E-01
   0.0000000E+00   4.2681774E-02  -3.2639003E-02   7.6457002E-01  -3.6531804E-01  -5.3101358E-01
   0.0000000E+00   3.9334184E-02  -3.5986593E-02   7.6398163E-01  -4.2847573E-01  -4.8243198E-01
   0.0000000E+00   3.5986593E-02  -3.9334184E-02   7.6394845E-01  -4.8406491E-01  -4.2668951E-01
   0.0000000E+00   3.2639003E-02  -4.2681774E-02   7.6442381E-01  -5.3119146E-01  -3.6536539E-01
   0.0000000E+00   2.9291413E-02  -4.6029364E-02   7.6605867E-01  -5.6968978E-01  -2.9767040E-01
   0.0000000E+00   2.5943823E-02  -4.9376954E-02   7.6793487E-01  -5.9937215E-01  -2.2589615E-01
   3.7660388E-03   5.2724544E-02  -1.8830194E-02   7.8969466E-01  -1.4820885E-01  -5.9532889E-01
   7.5320777E-03   5.2724544E-02  -1.5064155E-02   8.1706436E-01  -1.2855317E-01  -5.6203195E-01
   1.1298117E-02   5.2724544E-02  -1.1298117E-02   8.4493733E-01  -1.0195998E-01  -5.2505721E-01
   1.5064155E-02   5.2724544E-02  -7.5320777E-03   8.7159755E-01  -7.6307631E-02  -4.8424669E-01
   1.8830194E-02   5.2724544E-02  -3.7660388E-03   8.9266225E-01  -4.9037540E-02  -4.4805069E-01
   4.9376954E-02   2.5943823E-02   0.0000000E+00   6.7071645E-01  -6.0309568E-01   4.3175807E-01
   4.6029364E-02   2.9291413E-02   0.0000000E+00   7.5205751E-01  -5.6159878E-01   3.4498740E-01
   4.2681774E-02   3.2639003E-02   0.0000000E+00   8.2793573E-01  -5.0493690E-01   2.4405155E-01
   3.9334184E-02   3.5986593E-02   0.0000000E+00   8.8996591E-01  -4.3633125E-01   1.3257343E-01
   3.5986593E-02   3.9334184E-02   0.0000000E+00   9.3375665E-01  -3.5778538E-01   9.3883618E-03
   3.2639003E-02   4.2681774E-02   0.0000000E+00   9.5481523E-01  -2.7312118E-01  -1.1718659E-01
   2.9291413E-02   4.6029364E-02   0.0000000E+00   9.5286316E-01  -1.8732478E-01  -2.3866551E-01
   2.5943823E-02   4.9376954E-02   0.0000000E+00   9.3263069E-01  -1.0717652E-01  -3.4454780E-01
   5.2724544E-02   1.8830194E-02  -3.7660388E-03   5.6098187E-01  -6.4276018E-01   5.2168831E-01
   5.2724544E-02   1.5064155E-02  -7.5320777E-03   5.1502421E-01  -6.6022914E-01   5.4666951E-01
   5.2724544E-02   1.1298117E-02  -1.1298117E-02   4.6660615E-01  -6.7042488E-01   5.7689616E-01
   5.2724544E-02   7.5320777E-03  -1.5064155E-02   4.2799703E-01  -6.7467951E-01   6.0135355E-01
   5.2724544E-02   3.7660388E-03  -1.8830194E-02   4.0068937E-01  -6.7045126E-01   6.2445426E-01
   1.8830194E-02  -3.7660388E-03   5.2724544E-02  -6.4208284E-01   5.2003553E-01   5.6328738E-01
   1.5064155E-02  -7.5320777E-03   5.2724544E-02  -6.5885614E-01   5.4835271E-01   5.1499311E-01
   1.1298117E-02  -1.1298117E-02   5.2724544E-02  -6.7048344E-01   5.7644650E-01   4.6707750E-01
   7.5320777E-03  -1.5064155E-02   5.2724544E-02  -6.7411143E-01   6.0163031E-01   4.2850291E-01
   3.7660388E-03  -1.8830194E-02   5.2724544E-02  -6.7083049E-01   6.2353613E-01   4.0148367E-01
   3.7660388E-03   1.8830194E-02   5.2724544E-02  -4.7546365E-01   8.7872680E-01   4.2113206E-02
   7.5320777E-03   1.5064155E-02   5.2724544E-02  -5.3800522E-01   8.2651792E-01   1.6558536E-01
   1.1298117E-02   1.1298117E-02   5.2724544E-02  -5.8872609E-01   7.5184183E-01   2.9687616E-01
   1.5064155E-02   7.5320777E-03   5.2724544E-02  -6.1810910E-01   6.6110981E-01   4.2529397E-01
   1.8830194E-02   3.7660388E-03   5.2724544E-02  -6.2982274E-01   5.6530502E-01   5.3268522E-01
  -1.8830194E-02   3.7660388E-03   5.2724544E-02  -5.9549761E-01   7.8970353E-01  -1.4748196E-01
  -1.5064155E-02   7.5320777E-03   5.2724544E-02  -5.6287912E-01   8.1677690E-01  -1.2665935E-01
  -1.1298117E-02   1.1298117E-02   5.2724544E-02  -5.2678755E-01   8.4424079E-01  -9.8754108E-02
  -7.5320777E-03   1.5064155E-02   5.2724544E-02  -4.8503982E-01   8.7124291E-01  -7.5313811E-02
  -3.7660388E-03   1.8830194E-02   5.2724544E-02  -4.4834053E-01   8.9259274E-01  -4.7633651E-02
   0.0000000E+00   4.9376954E-02   2.5943823E-02   4.3371776E-01   6.7000074E-01  -6.0248478E-01
   0.0000000E+00   4.6029364E-02   2.9291413E-02   3.4522578E-01   7.5254905E-01  -5.6079326E-01
   0.0000000E+00   4.2681774E-02   3.2639003E-02   2.4284024E-01   8.2785031E-01  -5.0566045E-01
   0.0000000E+00   3.9334184E-02   3.5986593E-02   1.3331037E-01   8.9020394E-01  -4.3562059E-01
   0.0000000E+00   3.5986593E-02   3.9334184E-02   1.1209595E-02   9.3372367E-01  -3.5781902E-01
   0.0000000E+00   3.2639003E-02   4.2681774E-02  -1.1611899E-01   9.5398195E-01  -2.7646847E-01
   0.0000000E+00   2.9291413E-02   4.6029364E-02  -2.3750506E-01   9.5323141E-01  -1.8692573E-01
   0.0000000E+00   2.5943823E-02   4.9376954E-02  -3.4438913E-01   9.3321261E-01  -1.0251997E-01
  -3.7660388E-03   5.2724544E-02   1.8830194E-02   5.2178001E-01   5.6220759E-01  -6.4161379E-01
  -7.5320777E-03   5.2724544E-02   1.5064155E-02   5.4862463E-01   5.1460630E-01  -6.5893199E-01
  -1.1298117E-02   5.2724544E-02   1.1298117E-02   5.7644462E-01   4.6858719E-01  -6.6943084E-01
  -1.5064155E-02   5.2724544E-02   7.5320777E-03   6.0071301E-01   4.3066507E-01  -6.7355139E-01
  -1.8830194E-02   5.2724544E-02   3.7660388E-03   6.2473203E-01   4.0113216E-01  -6.6992752E-01
  -4.9376954E-02   2.5943823E-02   0.0000000E+00   4.2969638E-01   6.3195574E-01  -6.4497517E-01
  -4.6029364E-02   2.9291413E-02   0.0000000E+00   4.7128072E-01   6.1921642E-01  -6.2806490E-01
  -4.2681774E-02   3.2639003E-02   0.0000000E+00   5.1097857E-01   5.9955133E-01  -6.1598628E-01
  -3.9334184E-02   3.5986593E-02   0.0000000E+00   5.4596672E-01   5.7462974E-01  -6.0968927E-01
  -3.5986593E-02   3.9334184E-02   0.0000000E+00   5.7500767E-01   5.4539967E-01  -6.0984045E-01
  -3.2639003E-02   4.2681774E-02   0.0000000E+00   5.9961315E-01   5.1108435E-01  -6.1583834E-01
  -2.9291413E-02   4.6029364E-02   0.0000000E+00   6.1835939E-01   4.7186158E-01  -6.2847300E-01
  -2.5943823E-02   4.9376954E-02   0.0000000E+00   6.3234526E-01   4.2884766E-01  -6.4515824E-01
  -5.2724544E-02   1.8830194E-02   3.7660388E-03   3.2215361E-01   6.6503498E-01  -6.7375479E-01
  -5.2724544E-02   1.5064155E-02   7.5320777E-03   2.2257537E-01   6.9954698E-01  -6.7903919E-01
  -5.2724544E-02   1.1298117E-02   1.1298117E-02   1.1568445E-01   7.3085412E-01  -6.7265843E-01
  -5.2724544E-02   7.5320777E-03   1.5064155E-02   6.3695335E-03   7.5505178E-01  -6.5563422E-01
  -5.2724544E-02   3.7660388E-03   1.8830194E-02  -9.3892668E-02   7.6912497E-01  -6.3216371E-01
   2.5943823E-02   0.0000000E+00   4.9376954E-02  -6.0301059E-01   4.3207341E-01   6.7058989E-01
   2.9291413E-02   0.0000000E+00   4.6029364E-02  -5.6206589E-01   3.4104390E-01   7.5350580E-01
   3.2639003E-02   0.0000000E+00   4.2681774E-02  -5.0407696E-01   2.4403220E-01   8.2846527E-01
   3.5986593E-02   0.0000000E+00   3.9334184E-02  -4.3505078E-01   1.3112030E-01   8.9080766E-01
   3.9334184E-02   0.0000000E+00   3.5986593E-02  -3.5688129E-01   8.6429388E-03   9.3410976E-01
   4.2681774E-02   0.0000000E+00   3.2639003E-02  -2.7543637E-01  -1.1841340E-01   9.5399847E-01
   4.6029364E-02   0.0000000E+00   2.9291413E-02  -1.8722738E-01  -2.3987956E-01   9.5257740E-01
   4.9376954E-02   0.0000000E+00   2.5943823E-02  -1.0760120E-01  -3.4575643E-01   9.3213437E-01
   5.2724544E-02   3.7660388E-03   1.8830194E-02   4.2637119E-02  -4.7518266E-01   8.7885352E-01
   5.2724544E-02   7.5320777E-03   1.5064155E-02   1.6400675E-01  -5.4242669E-01   8.2393875E-01
   5.2724544E-02   1.1298117E-02   1.1298117E-02   2.9700047E-01  -5.8790493E-01   7.5243505E-01
   5.2724544E-02   1.5064155E-02   7.5320777E-03   4.2397241E-01  -6.1883081E-01   6.6128347E-01
   5.2724544E-02   1.8830194E-02   3.7660388E-03   5.3216293E-01  -6.3148681E-01   5.6393885E-01
   1.8830194E-02   5.2724544E-02   3.7660388E-03   8.7887630E-01   4.0943503E-02  -4.7528948E-01
   1.5064155E-02   5.2724544E-02   7.5320777E-03   8.2681819E-01   1.6614095E-01  -5.3737218E-01
   1.1298117E-02   5.2724544E-02   1.1298117E-02   7.5278419E-01   2.9748875E-01  -5.8721071E-01
   7.5320777E-03   5.2724544E-02   1.5064155E-02   6.6129953E-01   4.2382544E-01  -6.1891431E-01
   3.7660388E-03   5.2724544E-02   1.8830194E-02   5.6558380E-01   5.3157334E-01  -6.3051149E-01
  -3.7660388E-03  -5.2724544E-02  -1.8830194E-02  -4.7400689E-01   4.0008496E-02   8.7961173E-01
  -7.5320777E-03  -5.2724544E-02  -1.5064155E-02  -5.3866128E-01   1.6439098E-01   8.2632901E-01
  -1.1298117E-02  -5.2724544E-02  -1.1298117E-02  -5.8742791E-01   2.9735634E-01   7.5266703E-01
  -1.5064155E-02  -5.2724544E-02  -7.5320777E-03  -6.1902783E-01   4.2415570E-01   6.6098146E-01
  -1.8830194E-02  -5.2724544E-02  -3.7660388E-03  -6.3047071E-01   5.3123164E-01   5.6595020E-01
   3.7660388E-03  -5.2724544E-02   1.8830194E-02  -6.7443881E-01   3.2291026E-01   6.6397384E-01
   7.5320777E-03  -5.2724544E-02   1.5064155E-02  -6.7910400E-01   2.2258088E-01   6.9948231E-01
   1.1298117E-02  -5.2724544E-02   1.1298117E-02  -6.7273163E-01   1.1500126E-01   7.3089457E-01
   1.5064155E-02  -5.2724544E-02   7.5320777E-03  -6.5666101E-01   5.9161190E-03   7.5416266E-01
   1.8830194E-02  -5.2724544E-02   3.7660388E-03  -6.3349512E-01  -9.4429200E-02   7.6796293E-01
   5.2724544E-02  -1.8830194E-02   3.7660388E-03  -1.4817921E-01  -5.9703073E-01   7.8841438E-01
   5.2724544E-02  -1.5064155E-02   7.5320777E-03  -1.2755916E-01  -5.6365926E-01   8.1609859E-01
   5.2724544E-02  -1.1298117E-02   1.1298117E-02  -1.0198209E-01  -5.2559844E-01   8.4459809E-01
   5.2724544E-02  -7.5320777E-03   1.5064155E-02  -7.5404491E-02  -4.8598395E-01   8.7070877E-01
   5.2724544E-02  -3.7660388E-03   1.8830194E-02  -4.8690015E-02  -4.4960495E-01   8.9189947E-01
  -1.8830194E-02   5.2724544E-02  -3.7660388E-03   6.6537637E-01   3.2158495E-01  -6.7368940E-01
  -1.5064155E-02   5.2724544E-02  -7.5320777E-03   6.9952503E-01   2.2201271E-01  -6.7924597E-01
  -1.1298117E-02   5.2724544E-02  -1.1298117E-02   7.3053157E-01   1.1546905E-01  -6.7304571E-01
  -7.5320777E-03   5.2724544E-02  -1.5064155E-02   7.5446855E-01   7.0186751E-03  -6.5629867E-01
  -3.7660388E-03   5.2724544E-02  -1.8830194E-02   7.6845162E-01  -9.5013233E-02  -6.3281482E-01
  -2.5943823E-02   0.0000000E+00  -4.9376954E-02   9.3287461E-01  -3.4455252E-01  -1.0501674E-01
  -2.9291413E-02   0.0000000E+00  -4.6029364E-02   9.5319456E-01  -2.3835343E-01  -1.8603162E-01
  -3.2639003E-02   0.0000000E+00  -4.2681774E-02   9.5435761E-01  -1.1728239E-01  -2.7467507E-01
  -3.5986593E-02   0.0000000E+00  -3.9334184E-02   9.3429136E-01   1.0975138E-02  -3.5634140E-01
  -3.9334184E-02   0.0000000E+00  -3.5986593E-02   8.9038014E-01   1.3435539E-01  -4.3493889E-01
  -4.2681774E-02   0.0000000E+00  -3.2639003E-02   8.2824269E-01   2.4478939E-01  -5.0407559E-01
  -4.6029364E-02   0.0000000E+00  -2.9291413E-02   7.5302890E-01   3.4537246E-01  -5.6005833E-01
  -4.9376954E-02   0.0000000E+00  -2.5943823E-02   6.7156918E-01   4.3100822E-01  -6.0268297E-01
  -5.2724544E-02   3.7660388E-03  -1.8830194E-02   5.6291815E-01   5.2159005E-01  -6.4114505E-01
  -5.2724544E-02   7.5320777E-03  -1.5064155E-02   5.1540697E-01   5.4885476E-01  -6.5811405E-01
  -5.2724544E-02   1.1298117E-02  -1.1298117E-02   4.6795170E-01   5.7633586E-01  -6.6996879E-01
  -5.2724544E-02   1.5064155E-02  -7.5320777E-03   4.2998455E-01   6.0090487E-01  -6.7381498E-01
  -5.2724544E-02   1.8830194E-02  -3.7660388E-03   3.9931054E-01   6.2562944E-01  -6.7017825E-01
  -5.2724544E-02  -1.8830194E-02  -3.7660388E-03   4.0588056E-02   8.7978344E-01  -4.7363879E-01
  -5.2724544E-02  -1.5064155E-02  -7.5320777E-03   1.6577562E-01   8.2629974E-01  -5.3828169E-01
  -5.2724544E-02  -1.1298117E-02  -1.1298117E-02   2.9849444E-01   7.5295026E-01  -5.8648697E-01
  -5.2724544E-02  -7.5320777E-03  -1.5064155E-02   4.2496740E-01   6.6147476E-01  -6.1794324E-01
  -5.2724544E-02  -3.7660388E-03  -1.8830194E-02   5.3285561E-01   5.6477895E-01  -6.3015049E-01
  -3.5869300E-02  -3.5821780E-03   3.5869300E-02  -4.7254014E-01   7.7279790E-01  -4.2366169E-01
  -3.2521709E-02  -3.5821780E-03   3.9216890E-02  -5.2291806E-01   7.7106147E-01  -3.6334683E-01
  -2.9174119E-02  -3.5821780E-03   4.2564480E-02  -5.6435262E-01   7.7007401E-01  -2.9747628E-01
  -2.5826529E-02  -3.5821780E-03   4.5912070E-02  -5.9593806E-01   7.6987943E-01  -2.2834951E-01
  -2.2451959E-02  -3.6217646E-03   4.9247053E-02  -6.1940916E-01   7.6919800E-01  -1.5705644E-01
  -3.6217646E-03  -2.2451959E-02   4.9247053E-02  -6.5858088E-01   6.5509107E-01   3.7030652E-01
  -1.8685920E-02  -7.3878035E-03   4.9247053E-02  -6.4334526E-01   7.6364314E-01  -5.4369387E-02
  -1.4919881E-02  -1.1153842E-02   4.9247053E-02  -6.6207892E-01   7.4729915E-01   5.6528655E-02
  -1.1153842E-02  -1.4919881E-02   4.9247053E-02  -6.7201917E-01   7.2098946E-01   1.6901016E-01
  -7.3878035E-03  -1.8685920E-02   4.9247053E-02  -6.7103417E-01   6.8795573E-01   2.7645986E-01
  -4.9247053E-02  -7.3878035E-03   1.8685920E-02  -1.9029298E-01   8.1146351E-01  -5.5255367E-01
  -4.5912070E-02  -3.5821780E-03   2.5826529E-02  -2.7951097E-01   7.7980480E-01  -5.6015898E-01
  -4.9247053E-02  -3.6217646E-03   2.2451959E-02  -2.1083108E-01   7.8303451E-01  -5.8515572E-01
  -3.9216890E-02  -3.5821780E-03   3.2521709E-02  -4.1680818E-01   7.7434732E-01  -4.7608525E-01
  -4.2564480E-02  -3.5821780E-03   2.9174119E-02  -3.5063048E-01   7.7658693E-01  -5.2342240E-01
  -4.9247053E-02  -1.1153842E-02   1.4919881E-02  -1.6812561E-01   8.4260753E-01  -5.1161151E-01
  -4.2564480E-02  -2.9174119E-02   3.5821780E-03  -2.5754387E-01   9.5110167E-01  -1.7051914E-01
  -4.5912070E-02  -2.5826529E-02   3.5821780E-03  -1.7720068E-01   9.4180694E-01  -2.8565646E-01
  -4.9247053E-02  -2.2451959E-02   3.6217646E-03  -1.0195053E-01   9.1889216E-01  -3.8110798E-01
  -4.9247053E-02  -1.8685920E-02   7.3878035E-03  -1.1486787E-01   8.9723529E-01  -4.2634987E-01
  -4.9247053E-02  -1.4919881E-02   1.1153842E-02  -1.4407712E-01   8.7147561E-01  -4.6879851E-01
  -3.9216890E-02  -3.2521709E-02   3.5821780E-03  -3.3753224E-01   9.4020491E-01  -4.5680546E-02
  -1.8685920E-02  -4.9247053E-02   7.3878035E-03  -6.4023945E-01   5.8430628E-01   4.9867787E-01
  -2.5826529E-02  -4.5912070E-02   3.5821780E-03  -5.8733924E-01   7.1046866E-01   3.8764276E-01
  -2.2451959E-02  -4.9247053E-02   3.6217646E-03  -6.2118242E-01   6.3145585E-01   4.6410765E-01
  -3.2521709E-02  -3.9216890E-02   3.5821780E-03  -4.8270014E-01   8.5401077E-01   1.9407777E-01
  -2.9174119E-02  -4.2564480E-02   3.5821780E-03  -5.4024189E-01   7.8725176E-01   2.9727658E-01
  -1.4919881E-02  -4.9247053E-02   1.1153842E-02  -6.5547453E-01   5.3748334E-01   5.3053256E-01
  -3.5821780E-03  -4.5912070E-02   2.5826529E-02  -6.3833011E-01   4.7560890E-01   6.0525271E-01
  -3.5821780E-03  -4.9259660E-02   2.2478939E-02  -6.5558065E-01   4.3450321E-01   6.1759288E-01
  -1.1153842E-02  -4.9247053E-02   1.4919881E-02  -6.6339977E-01   4.9182473E-01   5.6392302E-01
  -7.3878035E-03  -4.9247053E-02   1.8685920E-02  -6.6333910E-01   4.5743108E-01   5.9223141E-01
  -3.5821780E-03  -4.2564480E-02   2.9174119E-02  -6.2398857E-01   5.1747277E-01   5.8554265E-01
  -3.5869300E-02  -3.5869300E-02   3.5821780E-03  -4.1477603E-01   9.0648658E-01   7.9012139E-02
  -3.5821780E-03  -3.9216890E-02   3.2521709E-02  -6.1594822E-01   5.5118908E-01   5.6284845E-01
  -3.5821780E-03  -3.5869300E-02   3.5869300E-02  -6.1268236E-01   5.8304500E-01   5.3355305E-01
  -3.5821780E-03  -3.2521709E-02   3.9216890E-02  -6.1698993E-01   6.0735722E-01   5.0044044E-01
  -3.5821780E-03  -2.9174119E-02   4.2564480E-02  -6.2690236E-01   6.2731060E-01   4.6203339E-01
  -3.5821780E-03  -2.5826529E-02   4.5912070E-02  -6.4165907E-01   6.4258392E-01   4.1875954E-01
  -7.1643559E-03  -2.5709235E-02   4.2447186E-02  -6.4052296E-01   6.6710903E-01   3.8038911E-01
  -7.1643559E-03  -2.9056825E-02   3.9099596E-02  -6.2827724E-01   6.5165569E-01   4.2498537E-01
  -7.1643559E-03  -3.2404415E-02   3.5752006E-02  -6.2081830E-01   6.3150266E-01   4.6453098E-01
  -7.1643559E-03  -3.5752006E-02   3.2404415E-02  -6.1929611E-01   6.0704475E-01   4.9796486E-01
  -7.1643559E-03  -3.9099596E-02   2.9056825E-02  -6.2349421E-01   5.7623751E-01   5.2839881E-01
  -1.1009568E-02  -4.5769563E-02   1.8541646E-02  -6.4881732E-01   5.3438275E-01   5.4172979E-01
  -7.2108737E-03  -4.5784325E-02   2.2325578E-02  -6.4690327E-01   5.0054310E-01   5.7530232E-01
  -7.1643559E-03  -4.2447186E-02   2.5709235E-02  -6.3279048E-01   5.4110664E-01   5.5387708E-01
  -1.4775607E-02  -4.5769563E-02   1.4775607E-02  -6.4351414E-01   5.7601308E-01   5.0408182E-01
  -2.9056825E-02  -3.9099596E-02   7.1643559E-03  -5.2599723E-01   8.1281837E-01   2.5030623E-01
  -3.2404415E-02  -3.5752006E-02   7.1643559E-03  -4.7149615E-01   8.6995203E-01   1.4448127E-01
  -2.2380840E-02  -4.5757788E-02   7.1821492E-03  -6.0927566E-01   6.6821749E-01   4.2692921E-01
  -2.5709235E-02  -4.2447186E-02   7.1643559E-03  -5.7209709E-01   7.4434439E-01   3.4446531E-01
  -1.8541646E-02  -4.5769563E-02   1.1009568E-02  -6.2996547E-01   6.1938445E-01   4.6851510E-01
  -3.5752006E-02  -3.2404415E-02   7.1643559E-03  -4.0884404E-01   9.1222196E-01   2.6413136E-02
  -4.5769563E-02  -1.8541646E-02   1.1009568E-02  -2.1000155E-01   9.0100231E-01  -3.7959740E-01
  -4.5769563E-02  -2.2307685E-02   7.2435293E-03  -1.8818899E-01   9.2487316E-01  -3.3044599E-01
  -3.9099596E-02  -2.9056825E-02   7.1643559E-03  -3.3988310E-01   9.3551299E-01  -9.6410222E-02
  -4.2447186E-02  -2.5709235E-02   7.1643559E-03  -2.6396515E-01   9.3944863E-01  -2.1853759E-01
  -4.5769563E-02  -1.4775607E-02   1.4775607E-02  -2.3200974E-01   8.7245540E-01  -4.3010819E-01
  -3.9099596E-02  -7.1643559E-03   2.9056825E-02  -4.1131127E-01   7.9966536E-01  -4.3744525E-01
  -4.5757788E-02  -7.1821492E-03   2.2380840E-02  -2.7070510E-01   8.0735814E-01  -5.2430104E-01
  -4.2447186E-02  -7.1643559E-03   2.5709235E-02  -3.4530927E-01   8.0335552E-01  -4.8516124E-01
  -4.5769563E-02  -1.1009568E-02   1.8541646E-02  -2.5283589E-01   8.4084540E-01  -4.7859485E-01
  -1.1009568E-02  -1.8541646E-02   4.5769563E-02  -6.6245528E-01   7.1487497E-01   2.2384543E-01
  -1.4775607E-02  -1.4775607E-02   4.5769563E-02  -6.5934238E-01   7.4377552E-01   1.0984351E-01
  -1.8541646E-02  -1.1009568E-02   4.5769563E-02  -6.4598411E-01   7.6329763E-01  -9.0140121E-03
  -7.1821492E-03  -2.2380840E-02   4.5757788E-02  -6.5508223E-01   6.7817429E-01   3.3308693E-01