 TITLE = "magnetization"
 VARIABLES = "X","Y","Z","Mx","My","Mz","SD"
 ZONE T="",  N=8273,  E=44746
 F=FEBLOCK, ET=TETRAHEDRON, VARLOCATION=([7]=CELLCENTERED)
   0.0000000E+00  -0.2259623E-01  -0.5272454E-01  -0.5272454E-01  -0.2259623E-01   0.0000000E+00   0.0000000E+00  -0.2259623E-01   0.2259623E-01   0.0000000E+00
   0.5272454E-01   0.5272454E-01   0.2259623E-01   0.0000000E+00   0.0000000E+00   0.2259623E-01   0.5272454E-01   0.2259623E-01   0.0000000E+00   0.0000000E+00
  -0.2259623E-01  -0.5272454E-01   0.5272454E-01  -0.5272454E-01  -0.3766039E-02  -0.7532078E-02  -0.1129812E-01  -0.1506416E-01  -0.1883019E-01  -0.2594382E-01
  -0.2929141E-01  -0.3263900E-01  -0.3598659E-01  -0.3933418E-01  -0.4268177E-01  -0.4602936E-01  -0.4937695E-01  -0.5272454E-01  -0.5272454E-01  -0.5272454E-01
  -0.5272454E-01  -0.5272454E-01  -0.4937695E-01  -0.4602936E-01  -0.4268177E-01  -0.3933418E-01  -0.3598659E-01  -0.3263900E-01  -0.2929141E-01  -0.2594382E-01
  -0.1883019E-01  -0.1506416E-01  -0.1129812E-01  -0.7532078E-02  -0.3766039E-02   0.0000000E+00   0.0000000E+00   0.0000000E+00   0.0000000E+00   0.0000000E+00
   0.0000000E+00   0.0000000E+00   0.0000000E+00  -0.3766039E-02  -0.7532078E-02  -0.1129812E-01  -0.1506416E-01  -0.1883019E-01   0.1883019E-01   0.1506416E-01
   0.1129812E-01   0.7532078E-02   0.3766039E-02   0.3766039E-02   0.7532078E-02   0.1129812E-01   0.1506416E-01   0.1883019E-01  -0.1883019E-01  -0.1506416E-01
  -0.1129812E-01  -0.7532078E-02  -0.3766039E-02   0.2594382E-01   0.2929141E-01   0.3263900E-01   0.3598659E-01   0.3933418E-01   0.4268177E-01   0.4602936E-01
   0.4937695E-01   0.5272454E-01   0.5272454E-01   0.5272454E-01   0.5272454E-01   0.5272454E-01   0.4937695E-01   0.4602936E-01   0.4268177E-01   0.3933418E-01
   0.3598659E-01   0.3263900E-01   0.2929141E-01   0.2594382E-01   0.1883019E-01   0.1506416E-01   0.1129812E-01   0.7532078E-02   0.3766039E-02   0.0000000E+00
   0.0000000E+00   0.0000000E+00   0.0000000E+00   0.0000000E+00   0.0000000E+00   0.0000000E+00   0.0000000E+00   0.0000000E+00   0.0000000E+00   0.0000000E+00
   0.0000000E+00   0.0000000E+00   0.0000000E+00   0.0000000E+00   0.0000000E+00   0.3766039E-02   0.7532078E-02   0.1129812E-01   0.1506416E-01   0.1883019E-01
   0.4937695E-01   0.4602936E-01   0.4268177E-01   0.3933418E-01   0.3598659E-01   0.3263900E-01   0.2929141E-01   0.2594382E-01   0.5272454E-01   0.5272454E-01
   0.5272454E-01   0.5272454E-01   0.5272454E-01   0.1883019E-01   0.1506416E-01   0.1129812E-01   0.7532078E-02   0.3766039E-02   0.3766039E-02   0.7532078E-02
   0.1129812E-01   0.1506416E-01   0.1883019E-01  -0.1883019E-01  -0.1506416E-01  -0.1129812E-01  -0.7532078E-02  -0.3766039E-02   0.0000000E+00   0.0000000E+00
   0.0000000E+00   0.0000000E+00   0.0000000E+00   0.0000000E+00   0.0000000E+00   0.0000000E+00  -0.3766039E-02  -0.7532078E-02  -0.1129812E-01  -0.1506416E-01
  -0.1883019E-01  -0.4937695E-01  -0.4602936E-01  -0.4268177E-01  -0.3933418E-01  -0.3598659E-01  -0.3263900E-01  -0.2929141E-01  -0.2594382E-01  -0.5272454E-01
  -0.5272454E-01  -0.5272454E-01  -0.5272454E-01  -0.5272454E-01   0.2594382E-01   0.2929141E-01   0.3263900E-01   0.3598659E-01   0.3933418E-01   0.4268177E-01
   0.4602936E-01   0.4937695E-01   0.5272454E-01   0.5272454E-01   0.5272454E-01   0.5272454E-01   0.5272454E-01   0.1883019E-01   0.1506416E-01   0.1129812E-01
   0.7532078E-02   0.3766039E-02  -0.3766039E-02  -0.7532078E-02  -0.1129812E-01  -0.1506416E-01  -0.1883019E-01   0.3766039E-02   0.7532078E-02   0.1129812E-01
   0.1506416E-01   0.1883019E-01   0.5272454E-01   0.5272454E-01   0.5272454E-01   0.5272454E-01   0.5272454E-01  -0.1883019E-01  -0.1506416E-01  -0.1129812E-01
  -0.7532078E-02  -0.3766039E-02  -0.2594382E-01  -0.2929141E-01  -0.3263900E-01  -0.3598659E-01  -0.3933418E-01  -0.4268177E-01  -0.4602936E-01  -0.4937695E-01
  -0.5272454E-01  -0.5272454E-01  -0.5272454E-01  -0.5272454E-01  -0.5272454E-01  -0.5272454E-01  -0.5272454E-01  -0.5272454E-01  -0.5272454E-01  -0.5272454E-01
  -0.3586930E-01  -0.3252171E-01  -0.2917412E-01  -0.2582653E-01  -0.2245196E-01  -0.3621765E-02  -0.1868592E-01  -0.1491988E-01  -0.1115384E-01  -0.7387803E-02
  -0.4924705E-01  -0.4591207E-01  -0.4924705E-01  -0.3921689E-01  -0.4256448E-01  -0.4924705E-01  -0.4256448E-01  -0.4591207E-01  -0.4924705E-01  -0.4924705E-01
  -0.4924705E-01  -0.3921689E-01  -0.1868592E-01  -0.2582653E-01  -0.2245196E-01  -0.3252171E-01  -0.2917412E-01  -0.1491988E-01  -0.3582178E-02  -0.3582178E-02
  -0.1115384E-01  -0.7387803E-02  -0.3582178E-02  -0.3586930E-01  -0.3582178E-02  -0.3582178E-02  -0.3582178E-02  -0.3582178E-02  -0.3582178E-02  -0.7164356E-02
  -0.7164356E-02  -0.7164356E-02  -0.7164356E-02  -0.7164356E-02  -0.1100957E-01  -0.7210874E-02  -0.7164356E-02  -0.1477561E-01  -0.2905683E-01  -0.3240442E-01
  -0.2238084E-01  -0.2570924E-01  -0.1854165E-01  -0.3575201E-01  -0.4576956E-01  -0.4576956E-01  -0.3909960E-01  -0.4244719E-01  -0.4576956E-01  -0.3909960E-01
  -0.4575779E-01  -0.4244719E-01  -0.4576956E-01  -0.1100957E-01  -0.1477561E-01  -0.1854165E-01  -0.7182149E-02  -0.2230768E-01  -0.2570924E-01  -0.2905683E-01
  -0.3575201E-01  -0.3240442E-01  -0.3228712E-01  -0.2893953E-01  -0.2559194E-01  -0.2228279E-01  -0.1839737E-01  -0.1463133E-01  -0.1083403E-01  -0.4230327E-01
  -0.3898230E-01  -0.3563471E-01  -0.4229207E-01  -0.3898230E-01  -0.4225632E-01  -0.4229207E-01  -0.3563471E-01  -0.2218347E-01  -0.3228712E-01  -0.2559194E-01
  -0.2893953E-01  -0.1839737E-01  -0.1076632E-01  -0.1463133E-01  -0.1074653E-01  -0.1074653E-01  -0.1074653E-01  -0.1074653E-01  -0.1074653E-01  -0.1439534E-01
  -0.1432871E-01  -0.1432871E-01  -0.1432871E-01  -0.1432871E-01  -0.1442672E-01  -0.1825310E-01  -0.2547465E-01  -0.2882224E-01  -0.2211963E-01  -0.3216983E-01
  -0.3882263E-01  -0.3551742E-01  -0.3881458E-01  -0.3551742E-01  -0.3880863E-01  -0.1825310E-01  -0.2204194E-01  -0.2547465E-01  -0.3216983E-01  -0.2882224E-01
  -0.2870494E-01  -0.2535735E-01  -0.2196221E-01  -0.1805151E-01  -0.3533812E-01  -0.3205253E-01  -0.3535171E-01  -0.3205253E-01  -0.2870494E-01  -0.2195160E-01
  -0.2535735E-01  -0.1805608E-01  -0.1791089E-01  -0.1791089E-01  -0.1791089E-01  -0.2157854E-01  -0.2149307E-01  -0.2149307E-01  -0.2157892E-01  -0.2524006E-01
  -0.2858765E-01  -0.3188101E-01  -0.2524006E-01  -0.2858765E-01  -0.2510533E-01  -0.2552830E-02  -0.6403502E-02  -0.1375539E-01   0.1357069E-01   0.1016954E-01
   0.6403502E-02   0.2637463E-02  -0.1016954E-01   0.2535704E-02   0.6403502E-02   0.1016954E-01   0.1393558E-01  -0.1365492E-01  -0.1016954E-01  -0.6403502E-02
  -0.2637463E-02  -0.1712141E-02  -0.5183155E-02  -0.8779004E-02   0.9210660E-02   0.5222248E-02   0.2090171E-02   0.1730580E-02   0.4888849E-02   0.8829462E-02
  -0.9140502E-02  -0.5274926E-02  -0.2115103E-02   0.3655349E-03  -0.1748277E-01   0.1748571E-01  -0.3629034E-03  -0.4028949E-03  -0.4039830E-02   0.4507819E-02
   0.9555068E-05   0.8923413E-03   0.3586930E-01   0.3252171E-01   0.2917412E-01   0.2582653E-01   0.2245196E-01   0.3621765E-02   0.1868592E-01   0.1491988E-01
   0.1115384E-01   0.7387803E-02   0.4924705E-01   0.4591207E-01   0.4924705E-01   0.3921689E-01   0.4256448E-01   0.4924705E-01   0.4256448E-01   0.4591207E-01
   0.4924705E-01   0.4924705E-01   0.4924705E-01   0.3921689E-01   0.1868592E-01   0.2582653E-01   0.2245196E-01   0.3252171E-01   0.2917412E-01   0.1491988E-01
   0.3582178E-02   0.3582178E-02   0.1115384E-01   0.7387803E-02   0.3582178E-02   0.3586930E-01   0.3582178E-02   0.3582178E-02   0.3582178E-02   0.3582178E-02
   0.3582178E-02   0.7164356E-02   0.7164356E-02   0.7164356E-02   0.7164356E-02   0.7164356E-02   0.1100957E-01   0.7210874E-02   0.7164356E-02   0.1477561E-01
   0.2905683E-01   0.3240442E-01   0.2238084E-01   0.2570924E-01   0.1854165E-01   0.3575201E-01   0.4576956E-01   0.4576956E-01   0.3909960E-01   0.4244719E-01
   0.4576956E-01   0.3909960E-01   0.4575779E-01   0.4244719E-01   0.4576956E-01   0.1100957E-01   0.1477561E-01   0.1854165E-01   0.7182149E-02   0.2230768E-01
   0.2570924E-01   0.2905683E-01   0.3575201E-01   0.3240442E-01   0.3228712E-01   0.2893953E-01   0.2559194E-01   0.2228279E-01   0.1839737E-01   0.1463133E-01
   0.1083403E-01   0.4230327E-01   0.3898230E-01   0.3563471E-01   0.4229207E-01   0.3898230E-01   0.4225632E-01   0.4229207E-01   0.3563471E-01   0.2218347E-01
   0.3228712E-01   0.2559194E-01   0.2893953E-01   0.1839737E-01   0.1076632E-01   0.1463133E-01   0.1074653E-01   0.1074653E-01   0.1074653E-01   0.1074653E-01
   0.1074653E-01   0.1439534E-01   0.1432871E-01   0.1432871E-01   0.1432871E-01   0.1432871E-01   0.1442672E-01   0.1825310E-01   0.2547465E-01   0.2882224E-01
   0.2211963E-01   0.3216983E-01   0.3882263E-01   0.3551742E-01   0.3881458E-01   0.3551742E-01   0.3880863E-01   0.1825310E-01   0.2204194E-01   0.2547465E-01
   0.3216983E-01   0.2882224E-01   0.2870494E-01   0.2535735E-01   0.2196221E-01   0.1805151E-01   0.3533812E-01   0.3205253E-01   0.3535171E-01   0.3205253E-01
   0.2870494E-01   0.2195160E-01   0.2535735E-01   0.1805608E-01   0.1791089E-01   0.1791089E-01   0.1791089E-01   0.2157854E-01   0.2149307E-01   0.2149307E-01
   0.2157892E-01   0.2524006E-01   0.2858765E-01   0.3188101E-01   0.2524006E-01   0.2858765E-01   0.2510533E-01   0.4924705E-01   0.3582178E-02   0.3582178E-02
   0.2245196E-01   0.3621765E-02   0.3582178E-02   0.7387803E-02   0.1868592E-01   0.1491988E-01   0.1115384E-01   0.7387803E-02   0.3621765E-02   0.3582178E-02
   0.3582178E-02   0.1115384E-01   0.2917412E-01   0.2582653E-01   0.3582178E-02   0.4924705E-01   0.1491988E-01   0.4591207E-01   0.4924705E-01   0.3586930E-01
   0.3252171E-01   0.1868592E-01   0.2245196E-01   0.3921689E-01   0.4256448E-01   0.4924705E-01   0.4256448E-01   0.4591207E-01   0.2582653E-01   0.3582178E-02
   0.2917412E-01   0.3252171E-01   0.3586930E-01   0.3921689E-01   0.4924705E-01   0.4924705E-01   0.4576956E-01   0.3575201E-01   0.3240442E-01   0.2905683E-01
   0.2570924E-01   0.4244719E-01   0.3909960E-01   0.3909960E-01   0.2230768E-01   0.3240442E-01   0.3575201E-01   0.4576956E-01   0.4244719E-01   0.1854165E-01
   0.4575779E-01   0.7164356E-02   0.2570924E-01   0.2905683E-01   0.1477561E-01   0.7164356E-02   0.7164356E-02   0.7243529E-02   0.1100957E-01   0.1477561E-01
   0.1854165E-01   0.1100957E-01   0.7164356E-02   0.7182149E-02   0.2238084E-01   0.7164356E-02   0.7164356E-02   0.4576956E-01   0.4576956E-01   0.4229207E-01
   0.1074653E-01   0.1078166E-01   0.1076229E-01   0.2218347E-01   0.1839737E-01   0.1463133E-01   0.1074653E-01   0.1074653E-01   0.1463133E-01   0.2559194E-01
   0.2228279E-01   0.1074653E-01   0.1074653E-01   0.1839737E-01   0.4229354E-01   0.4229207E-01   0.2893953E-01   0.3228712E-01   0.3563471E-01   0.3898230E-01
   0.3898230E-01   0.4225632E-01   0.2559194E-01   0.2893953E-01   0.3563471E-01   0.3228712E-01   0.3216983E-01   0.2882224E-01   0.2547465E-01   0.2211947E-01
   0.3881319E-01   0.3551742E-01   0.3551742E-01   0.3216983E-01   0.2882224E-01   0.3884129E-01   0.2204194E-01   0.1432871E-01   0.2547465E-01   0.1825310E-01
   0.1432871E-01   0.1432871E-01   0.1445621E-01   0.1825310E-01   0.1442159E-01   0.1432871E-01   0.3881458E-01   0.3536130E-01   0.1804902E-01   0.2191278E-01
   0.1804613E-01   0.1791089E-01   0.2192305E-01   0.1791089E-01   0.1791089E-01   0.3536375E-01   0.2535735E-01   0.2870494E-01   0.3205253E-01   0.2535735E-01
   0.3205253E-01   0.2870494E-01   0.2858765E-01   0.2524006E-01   0.2189960E-01   0.3185160E-01   0.2858765E-01   0.2524006E-01   0.2149307E-01   0.2184983E-01
   0.2149307E-01   0.2510772E-01   0.1375634E-01   0.1016954E-01   0.2856529E-02   0.2534837E-02  -0.2608713E-02   0.6403502E-02   0.6403502E-02   0.1016954E-01
   0.1366576E-01  -0.1371202E-01  -0.2637463E-02  -0.6403502E-02  -0.1344826E-01  -0.1015817E-01  -0.6403502E-02  -0.1016954E-01  -0.5145463E-02  -0.8768866E-02
  -0.5180706E-02  -0.1696928E-02  -0.9097767E-02   0.5274926E-02  -0.2078481E-02   0.2090030E-02   0.1712590E-02   0.8876308E-02   0.5274926E-02   0.9182514E-02
  -0.1677794E-01  -0.1777651E-04   0.3657881E-03   0.1748409E-01   0.4350977E-02   0.2323160E-03   0.2142656E-03  -0.4015987E-02   0.4194650E-03  -0.4924705E-01
  -0.3582178E-02  -0.3582178E-02  -0.2245196E-01  -0.3621765E-02  -0.3582178E-02  -0.7387803E-02  -0.1868592E-01  -0.1491988E-01  -0.1115384E-01  -0.7387803E-02
  -0.3621765E-02  -0.3582178E-02  -0.3582178E-02  -0.1115384E-01  -0.2917412E-01  -0.2582653E-01  -0.3582178E-02  -0.4924705E-01  -0.1491988E-01  -0.4591207E-01
  -0.4924705E-01  -0.3586930E-01  -0.3252171E-01  -0.1868592E-01  -0.2245196E-01  -0.3921689E-01  -0.4256448E-01  -0.4924705E-01  -0.4256448E-01  -0.4591207E-01
  -0.2582653E-01  -0.3582178E-02  -0.2917412E-01  -0.3252171E-01  -0.3586930E-01  -0.3921689E-01  -0.4924705E-01  -0.4924705E-01  -0.4576956E-01  -0.3575201E-01
  -0.3240442E-01  -0.2905683E-01  -0.2570924E-01  -0.4244719E-01  -0.3909960E-01  -0.3909960E-01  -0.2230768E-01  -0.3240442E-01  -0.3575201E-01  -0.4576956E-01
  -0.4244719E-01  -0.1854165E-01  -0.4575779E-01  -0.7164356E-02  -0.2570924E-01  -0.2905683E-01  -0.1477561E-01  -0.7164356E-02  -0.7164356E-02  -0.7243529E-02
  -0.1100957E-01  -0.1477561E-01  -0.1854165E-01  -0.1100957E-01  -0.7164356E-02  -0.7182149E-02  -0.2238084E-01  -0.7164356E-02  -0.7164356E-02  -0.4576956E-01
  -0.4576956E-01  -0.4229207E-01  -0.1074653E-01  -0.1078166E-01  -0.1076229E-01  -0.2218347E-01  -0.1839737E-01  -0.1463133E-01  -0.1074653E-01  -0.1074653E-01
  -0.1463133E-01  -0.2559194E-01  -0.2228279E-01  -0.1074653E-01  -0.1074653E-01  -0.1839737E-01  -0.4229354E-01  -0.4229207E-01  -0.2893953E-01  -0.3228712E-01
  -0.3563471E-01  -0.3898230E-01  -0.3898230E-01  -0.4225632E-01  -0.2559194E-01  -0.2893953E-01  -0.3563471E-01  -0.3228712E-01  -0.3216983E-01  -0.2882224E-01
  -0.2547465E-01  -0.2211947E-01  -0.3881319E-01  -0.3551742E-01  -0.3551742E-01  -0.3216983E-01  -0.2882224E-01  -0.3884129E-01  -0.2204194E-01  -0.1432871E-01
  -0.2547465E-01  -0.1825310E-01  -0.1432871E-01  -0.1432871E-01  -0.1445621E-01  -0.1825310E-01  -0.1442159E-01  -0.1432871E-01  -0.3881458E-01  -0.3536130E-01
  -0.1804902E-01  -0.2191278E-01  -0.1804613E-01  -0.1791089E-01  -0.2192305E-01  -0.1791089E-01  -0.1791089E-01  -0.3536375E-01  -0.2535735E-01  -0.2870494E-01
  -0.3205253E-01  -0.2535735E-01  -0.3205253E-01  -0.2870494E-01  -0.2858765E-01  -0.2524006E-01  -0.2189960E-01  -0.3185160E-01  -0.2858765E-01  -0.2524006E-01
  -0.2149307E-01  -0.2184983E-01  -0.2149307E-01  -0.2510772E-01   0.1868592E-01   0.7387803E-02   0.1115384E-01   0.1491988E-01   0.2582653E-01   0.2245196E-01
   0.3621765E-02   0.2917412E-01   0.4256448E-01   0.4591207E-01   0.4925966E-01   0.3921689E-01   0.4924705E-01   0.4924705E-01   0.4924705E-01   0.4924705E-01
   0.3586930E-01   0.4924705E-01   0.4591207E-01   0.4256448E-01   0.3921689E-01   0.2917412E-01   0.2582653E-01   0.2247894E-01   0.3252171E-01   0.1868592E-01
   0.1491988E-01   0.7387803E-02   0.3621765E-02   0.3582178E-02   0.1115384E-01   0.3582178E-02   0.3582178E-02   0.3252171E-01   0.3586930E-01   0.3582178E-02
   0.3582178E-02   0.3582178E-02   0.3582178E-02   0.7164356E-02   0.7164356E-02   0.7164356E-02   0.7164356E-02   0.7164356E-02   0.7164356E-02   0.7182149E-02
   0.1100957E-01   0.1477561E-01   0.1854165E-01   0.3240442E-01   0.2232558E-01   0.2570924E-01   0.2905683E-01   0.3575201E-01   0.3909960E-01   0.4244719E-01
   0.3240442E-01   0.4575779E-01   0.4576956E-01   0.4576956E-01   0.4576956E-01   0.3575201E-01   0.4578433E-01   0.4244719E-01   0.3909960E-01   0.2905683E-01
   0.7182149E-02   0.2238084E-01   0.2570924E-01   0.1477561E-01   0.1100957E-01   0.1854165E-01   0.2218347E-01   0.1083403E-01   0.1463133E-01   0.1839737E-01
   0.2559194E-01   0.3898230E-01   0.4228925E-01   0.3563471E-01   0.4229207E-01   0.4229207E-01   0.4230327E-01   0.2893953E-01   0.3228712E-01   0.3898230E-01
   0.3563471E-01   0.2559194E-01   0.2226521E-01   0.3228712E-01   0.2893953E-01   0.1839737E-01   0.1463133E-01   0.1083403E-01   0.1074653E-01   0.1074653E-01
   0.1074653E-01   0.1074653E-01   0.1074653E-01   0.1439534E-01   0.1432871E-01   0.1432871E-01   0.1439534E-01   0.1432871E-01   0.1432871E-01   0.1825310E-01
   0.2205540E-01   0.2882224E-01   0.2547465E-01   0.3216983E-01   0.3551742E-01   0.3880598E-01   0.2882224E-01   0.3881458E-01   0.3883866E-01   0.3216983E-01
   0.3551742E-01   0.2547465E-01   0.2211947E-01   0.1825310E-01   0.1805151E-01   0.2191278E-01   0.3533250E-01   0.3205253E-01   0.3535649E-01   0.2535735E-01
   0.2870494E-01   0.3205253E-01   0.2195121E-01   0.2870494E-01   0.2535735E-01   0.1805151E-01   0.1791089E-01   0.1791089E-01   0.1791089E-01   0.2157822E-01
   0.2149307E-01   0.2157863E-01   0.2149307E-01   0.2524006E-01   0.2858765E-01   0.3184381E-01   0.2524006E-01   0.2858765E-01   0.2510533E-01  -0.2725307E-02
  -0.6403502E-02  -0.1016954E-01  -0.1353032E-01   0.1375563E-01   0.1016954E-01   0.6403502E-02   0.2458863E-02   0.2725110E-02   0.6403502E-02   0.1016954E-01
   0.1365998E-01  -0.1393558E-01  -0.1016954E-01  -0.6403502E-02  -0.2457725E-02  -0.2082063E-02  -0.5183868E-02  -0.9157852E-02   0.8872769E-02   0.5258390E-02
   0.1685246E-02   0.2097811E-02   0.4970020E-02   0.9175733E-02  -0.8795302E-02  -0.5274926E-02  -0.1748549E-02   0.3272616E-03  -0.1748246E-01   0.1748333E-01
  -0.3276173E-03  -0.4851470E-03  -0.4144870E-02   0.4480696E-02   0.2025046E-03   0.6467865E-03   0.1115384E-01   0.3582178E-02   0.3582178E-02   0.2245196E-01
   0.3621765E-02   0.3621765E-02   0.3582178E-02   0.7387803E-02   0.1868592E-01   0.1491988E-01   0.1115384E-01   0.7387803E-02   0.3582178E-02   0.3582178E-02
   0.3582178E-02   0.2917412E-01   0.2582653E-01   0.3252171E-01   0.4924705E-01   0.1491988E-01   0.4591207E-01   0.4924705E-01   0.4924705E-01   0.3586930E-01
   0.3252171E-01   0.1868592E-01   0.2245196E-01   0.4256448E-01   0.3921689E-01   0.4256448E-01   0.4591207E-01   0.4924705E-01   0.2582653E-01   0.2917412E-01
   0.3582178E-02   0.3586930E-01   0.3921689E-01   0.4924705E-01   0.4924705E-01   0.4576956E-01   0.3575201E-01   0.2570924E-01   0.4576956E-01   0.4244719E-01
   0.3909960E-01   0.3909960E-01   0.2230768E-01   0.3240442E-01   0.3575201E-01   0.4576956E-01   0.4576956E-01   0.4244719E-01   0.1854165E-01   0.4575779E-01
   0.2905683E-01   0.3240442E-01   0.2570924E-01   0.2905683E-01   0.7164356E-02   0.7164356E-02   0.1100957E-01   0.1477561E-01   0.1854165E-01   0.7164356E-02
   0.7182149E-02   0.7182149E-02   0.2238084E-01   0.7164356E-02   0.7164356E-02   0.7164356E-02   0.1477561E-01   0.1100957E-01   0.1463133E-01   0.1074653E-01
   0.1074653E-01   0.1076229E-01   0.1083403E-01   0.2218347E-01   0.1839737E-01   0.1463133E-01   0.1074653E-01   0.1074653E-01   0.1074653E-01   0.2559194E-01
   0.2228279E-01   0.2893953E-01   0.1839737E-01   0.4229354E-01   0.4229207E-01   0.3228712E-01   0.2893953E-01   0.3898230E-01   0.3563471E-01   0.3898230E-01
   0.4225632E-01   0.4229207E-01   0.2559194E-01   0.3228712E-01   0.3563471E-01   0.3216983E-01   0.2211947E-01   0.3882263E-01   0.3551742E-01   0.3551742E-01
   0.3216983E-01   0.2882224E-01   0.3881458E-01   0.3884129E-01   0.2204194E-01   0.2547465E-01   0.2882224E-01   0.2547465E-01   0.1432871E-01   0.1432871E-01
   0.1442159E-01   0.1825310E-01   0.1439534E-01   0.1432871E-01   0.1432871E-01   0.1825310E-01   0.1808731E-01   0.1791089E-01   0.1803501E-01   0.2191278E-01
   0.1791089E-01   0.1791089E-01   0.2196946E-01   0.2535735E-01   0.3536310E-01   0.2535735E-01   0.2870494E-01   0.3205253E-01   0.3533328E-01   0.3205253E-01
   0.2870494E-01   0.2858765E-01   0.3187920E-01   0.2858765E-01   0.2524006E-01   0.2189812E-01   0.2524006E-01   0.2185284E-01   0.2149307E-01   0.2149307E-01
   0.2510772E-01   0.1016954E-01   0.1016954E-01   0.2725149E-02   0.2553513E-02   0.6403502E-02   0.1375660E-01   0.1366329E-01   0.6403502E-02  -0.1374895E-01
  -0.2637463E-02  -0.6403502E-02  -0.6403502E-02  -0.2458071E-02  -0.1345250E-01  -0.1016954E-01  -0.1016954E-01  -0.8779927E-02  -0.2078241E-02  -0.5155433E-02
  -0.5274926E-02  -0.1780514E-02  -0.9148162E-02   0.2103779E-02   0.1683706E-02   0.5012139E-02   0.9183973E-02   0.8924600E-02   0.5274926E-02  -0.1678313E-01
   0.3272962E-03   0.3627105E-03   0.1748494E-01   0.4534089E-02   0.2247874E-03  -0.3453115E-03  -0.4126254E-02   0.6467865E-03  -0.1868592E-01  -0.7387803E-02
  -0.1115384E-01  -0.1491988E-01  -0.2582653E-01  -0.2245196E-01  -0.3621765E-02  -0.2917412E-01  -0.4256448E-01  -0.4591207E-01  -0.4925966E-01  -0.3921689E-01
  -0.4924705E-01  -0.4924705E-01  -0.4924705E-01  -0.4924705E-01  -0.3586930E-01  -0.4924705E-01  -0.4591207E-01  -0.4256448E-01  -0.3921689E-01  -0.2917412E-01
  -0.2582653E-01  -0.2247894E-01  -0.3252171E-01  -0.1868592E-01  -0.1491988E-01  -0.7387803E-02  -0.3621765E-02  -0.3582178E-02  -0.1115384E-01  -0.3582178E-02
  -0.3582178E-02  -0.3252171E-01  -0.3586930E-01  -0.3582178E-02  -0.3582178E-02  -0.3582178E-02  -0.3582178E-02  -0.7164356E-02  -0.7164356E-02  -0.7164356E-02
  -0.7164356E-02  -0.7164356E-02  -0.7164356E-02  -0.7182149E-02  -0.1100957E-01  -0.1477561E-01  -0.1854165E-01  -0.3240442E-01  -0.2232558E-01  -0.2570924E-01
  -0.2905683E-01  -0.3575201E-01  -0.3909960E-01  -0.4244719E-01  -0.3240442E-01  -0.4575779E-01  -0.4576956E-01  -0.4576956E-01  -0.4576956E-01  -0.3575201E-01
  -0.4578433E-01  -0.4244719E-01  -0.3909960E-01  -0.2905683E-01  -0.7182149E-02  -0.2238084E-01  -0.2570924E-01  -0.1477561E-01  -0.1100957E-01  -0.1854165E-01
  -0.2218347E-01  -0.1083403E-01  -0.1463133E-01  -0.1839737E-01  -0.2559194E-01  -0.3898230E-01  -0.4228925E-01  -0.3563471E-01  -0.4229207E-01  -0.4229207E-01
  -0.4230327E-01  -0.2893953E-01  -0.3228712E-01  -0.3898230E-01  -0.3563471E-01  -0.2559194E-01  -0.2226521E-01  -0.3228712E-01  -0.2893953E-01  -0.1839737E-01
  -0.1463133E-01  -0.1083403E-01  -0.1074653E-01  -0.1074653E-01  -0.1074653E-01  -0.1074653E-01  -0.1074653E-01  -0.1439534E-01  -0.1432871E-01  -0.1432871E-01
  -0.1439534E-01  -0.1432871E-01  -0.1432871E-01  -0.1825310E-01  -0.2205540E-01  -0.2882224E-01  -0.2547465E-01  -0.3216983E-01  -0.3551742E-01  -0.3880598E-01
  -0.2882224E-01  -0.3881458E-01  -0.3883866E-01  -0.3216983E-01  -0.3551742E-01  -0.2547465E-01  -0.2211947E-01  -0.1825310E-01  -0.1805151E-01  -0.2191278E-01
  -0.3533250E-01  -0.3205253E-01  -0.3535649E-01  -0.2535735E-01  -0.2870494E-01  -0.3205253E-01  -0.2195121E-01  -0.2870494E-01  -0.2535735E-01  -0.1805151E-01
  -0.1791089E-01  -0.1791089E-01  -0.1791089E-01  -0.2157822E-01  -0.2149307E-01  -0.2157863E-01  -0.2149307E-01  -0.2524006E-01  -0.2858765E-01  -0.3184381E-01
  -0.2524006E-01  -0.2858765E-01  -0.2510533E-01  -0.5272454E-01  -0.5272454E-01  -0.5272454E-01  -0.5272454E-01  -0.5272454E-01  -0.5272454E-01  -0.5272454E-01
  -0.5272454E-01  -0.5272454E-01  -0.5272454E-01  -0.5272454E-01  -0.5272454E-01  -0.5272454E-01  -0.5272454E-01  -0.5272454E-01  -0.5272454E-01  -0.5272454E-01
  -0.5272454E-01  -0.5272454E-01  -0.5272454E-01  -0.5272454E-01  -0.5272454E-01  -0.5272454E-01  -0.5272454E-01  -0.5272454E-01  -0.5272454E-01  -0.5272454E-01
  -0.5272454E-01  -0.5272454E-01  -0.5272454E-01  -0.5272454E-01  -0.5272454E-01  -0.5272454E-01  -0.5272454E-01  -0.5272454E-01  -0.5272454E-01  -0.5272454E-01
  -0.1115384E-01  -0.3582178E-02  -0.3582178E-02  -0.2245196E-01  -0.3621765E-02  -0.3621765E-02  -0.3582178E-02  -0.7387803E-02  -0.1868592E-01  -0.1491988E-01
  -0.1115384E-01  -0.7387803E-02  -0.3582178E-02  -0.3582178E-02  -0.3582178E-02  -0.2917412E-01  -0.2582653E-01  -0.3252171E-01  -0.4924705E-01  -0.1491988E-01
  -0.4591207E-01  -0.4924705E-01  -0.4924705E-01  -0.3586930E-01  -0.3252171E-01  -0.1868592E-01  -0.2245196E-01  -0.4256448E-01  -0.3921689E-01  -0.4256448E-01
  -0.4591207E-01  -0.4924705E-01  -0.2582653E-01  -0.2917412E-01  -0.3582178E-02  -0.3586930E-01  -0.3921689E-01  -0.4924705E-01  -0.4924705E-01  -0.4576956E-01
  -0.3575201E-01  -0.2570924E-01  -0.4576956E-01  -0.4244719E-01  -0.3909960E-01  -0.3909960E-01  -0.2230768E-01  -0.3240442E-01  -0.3575201E-01  -0.4576956E-01
  -0.4576956E-01  -0.4244719E-01  -0.1854165E-01  -0.4575779E-01  -0.2905683E-01  -0.3240442E-01  -0.2570924E-01  -0.2905683E-01  -0.7164356E-02  -0.7164356E-02
  -0.1100957E-01  -0.1477561E-01  -0.1854165E-01  -0.7164356E-02  -0.7182149E-02  -0.7182149E-02  -0.2238084E-01  -0.7164356E-02  -0.7164356E-02  -0.7164356E-02
  -0.1477561E-01  -0.1100957E-01  -0.1463133E-01  -0.1074653E-01  -0.1074653E-01  -0.1076229E-01  -0.1083403E-01  -0.2218347E-01  -0.1839737E-01  -0.1463133E-01
  -0.1074653E-01  -0.1074653E-01  -0.1074653E-01  -0.2559194E-01  -0.2228279E-01  -0.2893953E-01  -0.1839737E-01  -0.4229354E-01  -0.4229207E-01  -0.3228712E-01
  -0.2893953E-01  -0.3898230E-01  -0.3563471E-01  -0.3898230E-01  -0.4225632E-01  -0.4229207E-01  -0.2559194E-01  -0.3228712E-01  -0.3563471E-01  -0.3216983E-01
  -0.2211947E-01  -0.3882263E-01  -0.3551742E-01  -0.3551742E-01  -0.3216983E-01  -0.2882224E-01  -0.3881458E-01  -0.3884129E-01  -0.2204194E-01  -0.2547465E-01
  -0.2882224E-01  -0.2547465E-01  -0.1432871E-01  -0.1432871E-01  -0.1442159E-01  -0.1825310E-01  -0.1439534E-01  -0.1432871E-01  -0.1432871E-01  -0.1825310E-01
  -0.1808731E-01  -0.1791089E-01  -0.1803501E-01  -0.2191278E-01  -0.1791089E-01  -0.1791089E-01  -0.2196946E-01  -0.2535735E-01  -0.3536310E-01  -0.2535735E-01
  -0.2870494E-01  -0.3205253E-01  -0.3533328E-01  -0.3205253E-01  -0.2870494E-01  -0.2858765E-01  -0.3187920E-01  -0.2858765E-01  -0.2524006E-01  -0.2189812E-01
  -0.2524006E-01  -0.2185284E-01  -0.2149307E-01  -0.2149307E-01  -0.2510772E-01   0.5272454E-01   0.5272454E-01   0.5272454E-01   0.5272454E-01   0.5272454E-01
   0.5272454E-01   0.5272454E-01   0.5272454E-01   0.5272454E-01   0.5272454E-01   0.5272454E-01   0.5272454E-01   0.5272454E-01   0.5272454E-01   0.5272454E-01
   0.5272454E-01   0.5272454E-01   0.5272454E-01   0.5272454E-01   0.5272454E-01   0.5272454E-01   0.5272454E-01   0.5272454E-01   0.5272454E-01   0.5272454E-01
   0.5272454E-01   0.5272454E-01   0.5272454E-01   0.5272454E-01   0.5272454E-01   0.5272454E-01   0.5272454E-01   0.5272454E-01   0.5272454E-01   0.5272454E-01
   0.5272454E-01   0.5272454E-01  -0.1308569E-02  -0.3050977E-03  -0.1321640E-02   0.1909280E-02   0.1183286E-02   0.3950003E-02   0.6958991E-02   0.1998793E-02
   0.3392771E-02   0.3618801E-02   0.7271913E-02   0.4414317E-02   0.7681010E-03  -0.1139338E-02   0.7458967E-02   0.1067247E-01   0.6093900E-02   0.6392107E-02
   0.9430211E-02   0.1055042E-01   0.8091836E-02  -0.3417163E-02  -0.5401936E-02  -0.3174248E-02  -0.7759443E-02  -0.5931572E-02  -0.1529366E-01  -0.6750255E-02
  -0.7578427E-02  -0.1004098E-01  -0.9820945E-02  -0.8746750E-02  -0.1319321E-01  -0.1156811E-01  -0.7945585E-02  -0.9693888E-02  -0.6300924E-02   0.3484490E-02
   0.4132390E-02   0.3715379E-02   0.1673729E-01   0.2056163E-01   0.1465291E-01   0.1707430E-01   0.3808353E-03   0.9466695E-02   0.1127832E-02   0.3131302E-02
   0.2018351E-02   0.3102094E-02   0.1001682E-01   0.1065775E-01   0.1096602E-01   0.7698208E-02   0.1272783E-01   0.8527477E-02   0.1000755E-01   0.6436723E-02
   0.1363236E-01   0.1522043E-01   0.1536618E-01   0.1820529E-01   0.2892337E-01   0.2429079E-01   0.2482983E-01   0.2484100E-01   0.1859943E-01   0.1628132E-01
   0.2011004E-01   0.1719063E-01   0.1605605E-01   0.2041228E-01   0.1600698E-01   0.1899243E-01   0.1903448E-01   0.2220841E-01  -0.4553997E-01   0.9835041E-02
   0.5757527E-02   0.6143191E-02   0.5370800E-02   0.1976241E-01   0.4650788E-02  -0.7487873E-02   0.1167196E-01   0.1183977E-01   0.1303317E-01   0.1621978E-01
   0.1734576E-01  -0.1768750E-02  -0.6423402E-02  -0.2071272E-02  -0.1048247E-02  -0.4096577E-02  -0.2344888E-02  -0.3041915E-03  -0.2052658E-02  -0.5233882E-02
  -0.8992719E-03   0.2443885E-02   0.4355808E-02  -0.4980909E-03   0.3772651E-02   0.2841881E-02   0.7235365E-02  -0.7182654E-03  -0.9065130E-03   0.3889956E-02
   0.3071565E-02   0.1903911E-02   0.2635778E-02   0.6939813E-02   0.4158892E-02   0.3258265E-02   0.6234282E-02   0.3304186E-03   0.7358315E-02  -0.7629233E-03
  -0.1267440E-02   0.2462109E-02  -0.2409624E-02  -0.4114841E-02  -0.2142769E-01  -0.1836542E-01  -0.3792978E-02   0.3297744E-02   0.5424893E-03  -0.1831539E-02
   0.9832433E-03  -0.1914069E-01  -0.1634418E-01  -0.1577363E-01  -0.1478519E-01  -0.5354496E-02  -0.2194012E-02  -0.5897287E-02  -0.2640960E-02  -0.5734463E-02
  -0.5577242E-02  -0.2472643E-02   0.1067497E-02  -0.1055529E-01  -0.4760287E-02  -0.8478019E-02  -0.5871410E-02  -0.5463613E-02  -0.2141052E-02  -0.3932959E-02
  -0.8712238E-02  -0.4740903E-02   0.7339083E-02   0.9710357E-02   0.5214673E-02  -0.8570757E-02  -0.1269060E-01  -0.8768312E-02  -0.9266419E-02  -0.1227335E-01
   0.1085560E-01  -0.2520130E-01  -0.2265776E-01  -0.2111633E-01  -0.2270561E-01   0.4244775E-02  -0.2100388E-02   0.2788878E-02   0.3102110E-03  -0.2428488E-02
   0.2876857E-02   0.7933893E-03  -0.8367090E-02  -0.3803694E-02  -0.4284576E-02  -0.6109536E-02  -0.8655147E-02  -0.8412833E-02  -0.4021140E-02   0.1467907E-02
   0.8137558E-03  -0.9201910E-02  -0.1647586E-02  -0.2687019E-02   0.2119207E-02  -0.1108322E-02  -0.4206416E-01  -0.4466367E-01  -0.4454110E-01  -0.3994993E-01
  -0.2214649E-01  -0.1825866E-01  -0.2199842E-01  -0.1786198E-01   0.4243193E-01  -0.1860224E-01  -0.1998435E-01  -0.2190539E-01  -0.1876193E-01  -0.2000863E-01
  -0.1961999E-01  -0.1560850E-01  -0.1746780E-01  -0.1927470E-01  -0.1636786E-01  -0.2281139E-01  -0.2167013E-01  -0.1735624E-01  -0.1872429E-01  -0.5599295E-02
  -0.3880872E-03   0.1001851E-03   0.1357196E-02  -0.2251555E-02  -0.3751709E-02  -0.2685186E-03  -0.1489725E-01  -0.1054334E-01   0.1641744E-02   0.5835299E-02
   0.4563766E-02  -0.7301670E-02  -0.4943781E-02  -0.1098096E-01  -0.7189195E-02  -0.4921175E-02  -0.1900081E-02  -0.4478382E-02  -0.7455384E-03  -0.1473305E-01