 TITLE = "mag_vort_hel"
 VARIABLES = "X","Y","Z","Mx","My","Mz","Vx","Vy","Vz","H","ADM"
 ZONE T = "0" N=8273, E=44746, F=FEPOINT, ET=TETRAHEDRON
  0.000000000000000E+00 -2.259623073041439E-02  5.272454023361206E-02 -4.226363000000000E-01  9.052572000000000E-01  4.345211000000000E-02 -8.243911386969668E+00 -1.745588095932572E+01  1.326645307964360E+01 -1.174143033612927E+01  1.482629875512991E-01
 -2.259623073041439E-02  0.000000000000000E+00  5.272454023361206E-02 -6.297112000000000E-01  4.914714000000000E-01 -6.015977000000000E-01 -8.200831571058449E+00 -1.631018487440520E+01  1.363100829072080E+01 -1.105221714125221E+01  3.267147696486090E-01
 -5.272454023361206E-02  0.000000000000000E+00  2.259623073041439E-02 -4.216580000000000E-02 -4.255614000000000E-01 -9.039466000000000E-01 -1.300196369826300E+01 -6.646868616361912E+00  1.804503635519160E+01 -1.293486034524858E+01  1.497572583469922E-01
 -5.272454023361206E-02 -2.259623073041439E-02  0.000000000000000E+00  6.021590000000000E-01 -6.325835000000000E-01 -4.870757000000000E-01 -1.406789166649504E+01 -7.569748176537284E+00  1.643659803787069E+01 -1.168847727728691E+01  3.260554405815377E-01
 -2.259623073041439E-02 -5.272454023361206E-02  0.000000000000000E+00  9.054719000000000E-01 -5.399126000000000E-02  4.209580000000000E-01 -1.828505850598319E+01 -1.380284577225032E+01  8.367182849567392E+00 -1.228914107420610E+01  1.481937483338484E-01
  0.000000000000000E+00 -5.272454023361206E-02  2.259623073041439E-02  4.900133000000000E-01  6.009589000000000E-01  6.314549000000000E-01 -1.640617290907663E+01 -1.430396570079745E+01  7.838828108871285E+00 -1.168547200113170E+01  3.264627104640087E-01
  0.000000000000000E+00  2.259623073041439E-02 -5.272454023361206E-02  4.866999000000000E-01 -6.316535000000000E-01 -6.034376000000000E-01 -1.661182750211520E+01 -8.256811397930399E+00  1.400138831048505E+01 -1.131849512450124E+01  3.260518664947096E-01
 -2.259623073041439E-02  0.000000000000000E+00 -5.272454023361206E-02  6.355546000000000E-01 -6.661044000000000E-01 -3.903528000000000E-01 -1.140907402309408E+01 -8.328268311196126E+00  2.730043830160081E+00 -2.769273563875354E+00  3.083786434541358E-01
  2.259623073041439E-02  0.000000000000000E+00 -5.272454023361206E-02  9.049388000000000E-01 -4.234740000000000E-01  4.190043000000000E-02 -1.749599181976856E+01 -7.409599605838963E+00  1.327506319973727E+01 -1.213879820236196E+01  1.486085339173959E-01
  0.000000000000000E+00 -2.259623073041439E-02 -5.272454023361206E-02  7.660746000000000E-01 -6.202487000000000E-01  1.685857000000000E-01 -1.360242185471756E+01 -6.571617704992152E+00  3.498049768202665E+00 -5.754711374158362E+00  2.533874534916663E-01
  5.272454023361206E-02  0.000000000000000E+00 -2.259623073041439E-02  5.995495000000000E-01  4.930278000000000E-01  6.304475000000000E-01 -1.372238852261987E+01 -1.633680089210714E+01  8.633823260174513E+00 -1.083857589059723E+01  3.268624903688085E-01
  5.272454023361206E-02 -2.259623073041439E-02  0.000000000000000E+00  3.871555000000000E-01  6.392146000000000E-01  6.644662000000000E-01 -2.660694032653400E+00 -1.133981663468016E+01  7.904987234701341E+00 -3.026081853878861E+00  3.078236314020714E-01
  2.259623073041439E-02 -5.272454023361206E-02  0.000000000000000E+00  6.392384000000000E-01  3.854671000000000E-01  6.654242000000000E-01 -1.157610987123572E+01 -2.705329073491983E+00  7.771012400378298E+00 -3.271689595105759E+00  3.074425602100040E-01
  0.000000000000000E+00 -5.272454023361206E-02 -2.259623073041439E-02  7.674386000000000E-01 -1.739064000000000E-01  6.170856000000000E-01 -1.411962193125545E+01 -3.676927112638278E+00  6.821207427134373E+00 -5.987232852332991E+00  2.536022676983568E-01
  0.000000000000000E+00  5.272454023361206E-02 -2.259623073041439E-02 -4.241683000000000E-01 -4.892692000000000E-02 -9.042607000000000E-01 -8.047419221530046E+00 -1.334990904933774E+01  1.790569888685836E+01 -1.212478974677182E+01  1.495054038942268E-01
  2.259623073041439E-02  5.272454023361206E-02  0.000000000000000E+00 -6.317422000000000E-01  5.984274000000001E-01 -4.927337000000000E-01 -8.224823565444179E+00 -1.300381006341886E+01  1.554849093424389E+01 -1.024713357994648E+01  3.267643653516678E-01
  5.272454023361206E-02  2.259623073041439E-02  0.000000000000000E+00 -5.253083000000000E-02  9.061259000000000E-01  4.197336000000000E-01 -1.373374192529546E+01 -1.804330503697580E+01  8.744596238910340E+00 -1.195766029335837E+01  1.474039827005051E-01
  2.259623073041439E-02  0.000000000000000E+00  5.272454023361206E-02 -6.181713000000000E-01  7.677225000000000E-01  1.687202000000000E-01 -7.009087102367781E+00 -1.347609403795938E+01  3.520418290616775E+00 -5.419118441096824E+00  2.528860558256852E-01
  0.000000000000000E+00  2.259623073041439E-02  5.272454023361206E-02 -6.653287000000000E-01  6.384894000000000E-01 -3.868707000000000E-01 -7.751603253744483E+00 -1.143476563008020E+01  2.738273165149009E+00 -3.202970186753352E+00  3.077277676258186E-01
  0.000000000000000E+00  5.272454023361206E-02  2.259623073041439E-02 -6.654292000000001E-01  3.895328000000000E-01 -6.367639000000000E-01 -8.466522181115293E+00 -2.623457837713592E+00  1.139198600593218E+01 -2.642057233327516E+00  3.082517087010296E-01
 -2.259623073041439E-02  5.272454023361206E-02  0.000000000000000E+00 -6.198126000000000E-01 -1.731372000000000E-01 -7.654122000000000E-01 -6.691033549925269E+00 -3.546109503357701E+00  1.329868376316526E+01 -5.417824424697444E+00  2.541447796323086E-01
 -5.272454023361206E-02  2.259623073041439E-02  0.000000000000000E+00 -1.715691000000000E-01 -6.196379000000000E-01 -7.659066000000000E-01 -3.389572828527791E+00 -6.665406413296742E+00  1.312681127167859E+01 -5.342226997776332E+00  2.538001693273776E-01
  5.272454023361206E-02  0.000000000000000E+00  2.259623073041439E-02 -1.682585000000000E-01  7.687197000000000E-01  6.170568000000000E-01 -3.551599997572579E+00 -1.315324222830293E+01  6.896082650897889E+00 -5.258294838478225E+00  2.525113828723914E-01
 -5.272454023361206E-02  0.000000000000000E+00 -2.259623073041439E-02  3.901842000000000E-01 -6.664620000000000E-01 -6.352832000000000E-01 -2.650155786337236E+00 -8.551507991589013E+00  1.140285984834016E+01 -2.578839089882024E+00  3.083263995290587E-01
 -3.766038920730352E-03 -1.883018948137760E-02  5.272454023361206E-02 -4.785004000000000E-01  8.773308000000000E-01 -3.644225000000000E-02 -1.099069175185830E+01 -2.052209284245706E+01  1.591844219450010E+01 -1.332571758166875E+01  1.775609461808828E-01
 -7.532077841460705E-03 -1.506416033953428E-02  5.272454023361206E-02 -5.421307000000000E-01  8.245732000000000E-01 -1.617818000000000E-01 -1.281435008265341E+01 -2.338339280696447E+01  1.777466092145205E+01 -1.520988309160389E+01  2.253209414264771E-01
 -1.129812002182007E-02 -1.129812002182007E-02  5.272454023361206E-02 -5.908595000000000E-01  7.504572000000000E-01 -2.961402000000000E-01 -1.263330201227105E+01 -2.427242540508291E+01  1.858306521317012E+01 -1.625410254522916E+01  2.766245770144435E-01
 -1.506416033953428E-02 -7.532077841460705E-03  5.272454023361206E-02 -6.223572000000001E-01  6.588971000000000E-01 -4.225234000000000E-01 -1.148016959578753E+01 -2.331465290283798E+01  1.907477380298984E+01 -1.627672926149726E+01  3.148114429180464E-01
 -1.883018948137760E-02 -3.766038920730352E-03  5.272454023361206E-02 -6.340360000000000E-01  5.620176000000000E-01 -5.311634000000000E-01 -1.017213286166869E+01 -2.004887671940225E+01  1.701929134609020E+01 -1.385834780243320E+01  3.295124181000524E-01
 -2.594381943345070E-02  0.000000000000000E+00  4.937694966793060E-02 -6.064509000000000E-01  4.267629000000000E-01 -6.708881000000000E-01 -1.068951522050585E+01 -1.887971313105171E+01  1.533750263843570E+01 -1.186424300478135E+01  3.144920173424471E-01
 -2.929140999913216E-02  0.000000000000000E+00  4.602935910224915E-02 -5.659617000000000E-01  3.396871000000000E-01 -7.511990000000000E-01 -1.161546652107578E+01 -2.076562507870729E+01  1.885385821660268E+01 -1.464290522256594E+01  2.828255771707139E-01
 -3.263900056481361E-02  0.000000000000000E+00  4.268176853656769E-02 -5.091489000000000E-01  2.414196000000000E-01 -8.261259000000000E-01 -1.294446204840525E+01 -2.065782332615242E+01  2.110388520796901E+01 -1.583101099216320E+01  2.318085432830951E-01
 -3.598659113049507E-02  0.000000000000000E+00  3.933418169617653E-02 -4.412269000000000E-01  1.274085000000000E-01 -8.883050000000000E-01 -1.433455387383776E+01 -1.925147957721761E+01  2.435549894830402E+01 -1.776312286035071E+01  1.695896870693159E-01
 -3.933418169617653E-02  0.000000000000000E+00  3.598659113049507E-02 -3.634384000000000E-01  5.233076000000000E-03 -9.316035000000000E-01 -1.563721977200481E+01 -1.743838472354075E+01  2.660941454007229E+01 -1.919751397667197E+01  1.146641925855973E-01
 -4.268176853656769E-02  0.000000000000000E+00  3.263900056481361E-02 -2.783754000000000E-01 -1.227158000000000E-01 -9.526006000000000E-01 -1.677963328748116E+01 -1.447264292588109E+01  2.749134426328676E+01 -1.974121195699380E+01  8.515319036411961E-02
 -4.602935910224915E-02  0.000000000000000E+00  2.929140999913216E-02 -1.913104000000000E-01 -2.463304000000000E-01 -9.501167000000000E-01 -1.659529216532613E+01 -1.109591419094426E+01  2.651659047171179E+01 -1.928574247094787E+01  9.003600865636302E-02
 -4.937694966793060E-02  0.000000000000000E+00  2.594381943345070E-02 -1.073828000000000E-01 -3.528502000000000E-01 -9.294975000000000E-01 -1.517794444669646E+01 -8.852208066671080E+00  2.365189974510932E+01 -1.723102812363253E+01  1.189647047759935E-01
 -5.272454023361206E-02 -3.766038920730352E-03  1.883018948137760E-02  3.710551000000000E-02 -4.823944000000000E-01 -8.751679000000000E-01 -1.570980762327207E+01 -1.096907251934280E+01  2.061341267040562E+01 -1.333169834593082E+01  1.796075484300261E-01
 -5.272454023361206E-02 -7.532077841460705E-03  1.506416033953428E-02  1.627859000000000E-01 -5.453349000000000E-01 -8.222595000000000E-01 -1.774262934074608E+01 -1.298554562039996E+01  2.339340673725741E+01 -1.504222959032742E+01  2.268656138815861E-01
 -5.272454023361206E-02 -1.129812002182007E-02  1.129812002182007E-02  2.940856000000000E-01 -5.952990000000000E-01 -7.477518000000000E-01 -1.885260134924695E+01 -1.201005109486028E+01  2.437560619191574E+01 -1.662161057873101E+01  2.771524270322795E-01
 -5.272454023361206E-02 -1.506416033953428E-02  7.532077841460705E-03  4.212696000000000E-01 -6.254155000000000E-01 -6.568009000000000E-01 -1.865853969041388E+01 -1.153100543290475E+01  2.286098028600167E+01 -1.566371845037010E+01  3.147079584128537E-01
 -5.272454023361206E-02 -1.883018948137760E-02  3.766038920730352E-03  5.294170000000000E-01 -6.364891000000000E-01 -5.608915000000000E-01 -1.706745574184847E+01 -1.010296385039102E+01  1.965561847724835E+01 -1.363004417914582E+01  3.291740988780442E-01
 -4.937694966793060E-02 -2.594381943345070E-02  0.000000000000000E+00  6.678596000000000E-01 -6.093413000000000E-01 -4.273953000000000E-01 -1.533246218643980E+01 -1.116104408571071E+01  1.876231372866058E+01 -1.145797165506154E+01  3.149115110971772E-01
 -4.602935910224915E-02 -2.929140999913216E-02  0.000000000000000E+00  7.497898000000000E-01 -5.670785000000000E-01 -3.409357000000000E-01 -1.770452044297971E+01 -1.241840398482594E+01  2.023558767071095E+01 -1.313149318535376E+01  2.835124058713104E-01
 -4.268176853656769E-02 -3.263900056481361E-02  0.000000000000000E+00  8.254684000000000E-01 -5.105757000000000E-01 -2.406542000000000E-01 -2.074767434029774E+01 -1.324416362126825E+01  2.064171114720205E+01 -1.533191591232405E+01  2.321922891140704E-01
 -3.933418169617653E-02 -3.598659113049507E-02  0.000000000000000E+00  8.876482999999999E-01 -4.424057000000000E-01 -1.278974000000000E-01 -2.389049395187210E+01 -1.430915268670931E+01  1.935448852365008E+01 -1.735129439227372E+01  1.703039314263873E-01
 -3.598659113049507E-02 -3.933418169617653E-02  0.000000000000000E+00  9.306945000000000E-01 -3.657631000000000E-01 -5.008456000000000E-03 -2.660709651182034E+01 -1.557463965076961E+01  1.719568879835064E+01 -1.915257375520820E+01  1.159065925922810E-01
 -3.263900056481361E-02 -4.268176853656769E-02  0.000000000000000E+00  9.504431000000000E-01 -2.852622000000000E-01  1.236263000000000E-01 -2.815018985817300E+01 -1.627113116362118E+01  1.507613764450794E+01 -2.024980792688613E+01  8.855883894316352E-02
 -2.929140999913216E-02 -4.602935910224915E-02  0.000000000000000E+00  9.497316000000000E-01 -1.951314000000000E-01  2.448134000000000E-01 -2.663526942727206E+01 -1.643794953162892E+01  1.165749203966298E+01 -1.923488668265525E+01  9.068599972658442E-02
 -2.594381943345070E-02 -4.937694966793060E-02  0.000000000000000E+00  9.299925999999999E-01 -1.129952000000000E-01  3.497798000000000E-01 -2.307451729132446E+01 -1.484847428304880E+01  8.522289111295736E+00 -1.680039942730463E+01  1.184201288500618E-01
 -1.883018948137760E-02 -5.272454023361206E-02  3.766038920730352E-03  8.759886000000000E-01  3.472351000000000E-02  4.810803000000000E-01 -1.999065327031725E+01 -1.553912974598799E+01  1.143685902017456E+01 -1.254910992999346E+01  1.787998038273909E-01
 -1.506416033953428E-02 -5.272454023361206E-02  7.532077841460705E-03  8.241168000000000E-01  1.588392000000000E-01  5.436926000000000E-01 -2.327719820880249E+01 -1.723317338766843E+01  1.288079112315243E+01 -1.491724275935892E+01  2.253566348044488E-01
 -1.129812002182007E-02 -5.272454023361206E-02  1.129812002182007E-02  7.498216000000000E-01  2.937464000000000E-01  5.928580000000000E-01 -2.438813667540597E+01 -1.842906369582601E+01  1.289898322700607E+01 -1.605295738099480E+01  2.764553186879765E-01
 -7.532077841460705E-03 -5.272454023361206E-02  1.506416033953428E-02  6.596016000000000E-01  4.206075000000000E-01  6.229085000000000E-01 -2.328065105253776E+01 -1.864312807579458E+01  1.116142002646164E+01 -1.624485076888218E+01  3.144286771957277E-01
 -3.766038920730352E-03 -5.272454023361206E-02  1.883018948137760E-02  5.651367000000000E-01  5.275721000000000E-01  6.342619000000000E-01 -1.955819600543656E+01 -1.677571277641538E+01  9.728127478604129E+00 -1.373327174889423E+01  3.293460494613059E-01
  0.000000000000000E+00 -4.937694966793060E-02  2.594381943345070E-02  4.311384000000000E-01  6.668798000000000E-01  6.077754000000000E-01 -1.874782444663879E+01 -1.533882367429672E+01  1.108317169174377E+01 -1.157597959133675E+01  3.156076273011223E-01
  0.000000000000000E+00 -4.602935910224915E-02  2.929140999913216E-02  3.407678000000000E-01  7.494411000000000E-01  5.676402000000000E-01 -2.102367660088737E+01 -1.902501616545489E+01  1.139050731562378E+01 -1.495661121501001E+01  2.836142991178765E-01
  0.000000000000000E+00 -4.268176853656769E-02  3.263900056481361E-02  2.441739000000000E-01  8.245105000000000E-01  5.104522000000000E-01 -2.083134089964974E+01 -2.094981427048456E+01  1.306828103413651E+01 -1.568907878466808E+01  2.332005797380712E-01
  0.000000000000000E+00 -3.933418169617653E-02  3.598659113049507E-02  1.309221000000000E-01  8.881461000000000E-01  4.405177000000000E-01 -1.958453009173373E+01 -2.397690063979816E+01  1.432260261305712E+01 -1.754967863932930E+01  1.699187878630374E-01
  0.000000000000000E+00 -3.598659113049507E-02  3.933418169617653E-02  8.541053999999999E-03  9.317811000000000E-01  3.629201000000000E-01 -1.736566934448168E+01 -2.672078841539233E+01  1.557562344238462E+01 -1.939353992490631E+01  1.144265764811997E-01
  0.000000000000000E+00 -3.263900056481361E-02  4.268176853656769E-02 -1.205153000000000E-01  9.517736000000000E-01  2.821403000000000E-01 -1.514521013333254E+01 -2.849945035410674E+01  1.622308133657659E+01 -2.072260988354171E+01  8.642326389159416E-02
  0.000000000000000E+00 -2.929140999913216E-02  4.602935910224915E-02 -2.422161000000000E-01  9.510573000000000E-01  1.918891000000000E-01 -1.168096962479273E+01 -2.659630702643184E+01  1.664409669339604E+01 -1.927147230898480E+01  8.853192757074069E-02
  0.000000000000000E+00 -2.594381943345070E-02  4.937694966793060E-02 -3.494417000000000E-01  9.307717000000000E-01  1.074920000000000E-01 -8.927525302224439E+00 -2.366745268558925E+01  1.522877107980279E+01 -1.727237449152300E+01  1.172088855681058E-01
 -3.766038920730352E-03  1.883018948137760E-02 -5.272454023361206E-02  5.163334000000001E-01 -6.471800000000000E-01 -5.608545000000000E-01 -1.634992346061633E+01 -5.753932355223300E+00  1.264052331084848E+01 -1.180767600975065E+01  3.272745860914696E-01
 -7.532077841460705E-03  1.506416033953428E-02 -5.272454023361206E-02  5.431051000000000E-01 -6.633739000000000E-01 -5.147543000000000E-01 -1.629306841711420E+01 -5.212982130825381E+00  1.147893804196069E+01 -1.129952498176056E+01  3.245647207639423E-01
 -1.129812002182007E-02  1.129812002182007E-02 -5.272454023361206E-02  5.705089000000000E-01 -6.750821000000000E-01 -4.677433000000000E-01 -1.604582942657943E+01 -5.253060338397301E+00  9.563874379041996E+00 -1.008147965391206E+01  3.192504998533168E-01
 -1.506416033953428E-02  7.532077841460705E-03 -5.272454023361206E-02  5.959174000000000E-01 -6.781180000000000E-01 -4.301610000000000E-01 -1.487342653162547E+01 -6.104059394858863E+00  7.370884606502065E+00 -7.894728212311903E+00  3.140978807996102E-01
 -1.883018948137760E-02  3.766038920730352E-03 -5.272454023361206E-02  6.220351000000000E-01 -6.741066000000000E-01 -3.983122000000000E-01 -1.209003914251921E+01 -6.963140048882178E+00  4.649988860423546E+00 -4.678677336315846E+00  3.093095300818402E-01
  1.883018948137760E-02  3.766038920730352E-03 -5.272454023361206E-02  8.756709000000000E-01 -4.814914000000000E-01 -3.696583000000000E-02 -2.103109890598907E+01 -1.067599648736459E+01  1.577385455278120E+01 -1.385901443774303E+01  1.791348161014932E-01
  1.506416033953428E-02  7.532077841460705E-03 -5.272454023361206E-02  8.223125000000000E-01 -5.448827000000001E-01 -1.640275000000000E-01 -2.433977702272554E+01 -1.259936803329417E+01  1.782671994194103E+01 -1.607379752600171E+01  2.269423344957051E-01
  1.129812002182007E-02  1.129812002182007E-02 -5.272454023361206E-02  7.491544999999999E-01 -5.926426000000000E-01 -2.958753000000000E-01 -2.463023495592620E+01 -1.224881367153511E+01  1.872069816108032E+01 -1.673167475669439E+01  2.769976538094854E-01
  7.532077841460705E-03  1.506416033953428E-02 -5.272454023361206E-02  6.561795000000000E-01 -6.242197000000000E-01 -4.240027000000000E-01 -2.297258559177698E+01 -1.153521897736953E+01  1.913063717536248E+01 -1.598507061290557E+01  3.152303070146770E-01
  3.766038920730352E-03  1.883018948137760E-02 -5.272454023361206E-02  5.606833000000000E-01 -6.354487000000000E-01 -5.308853000000000E-01 -2.002080309217124E+01 -9.575051002983145E+00  1.713521546221358E+01 -1.423771023531133E+01  3.293451943990584E-01
  3.766038920730352E-03 -1.883018948137760E-02 -5.272454023361206E-02  7.845704000000000E-01 -6.015702000000001E-01  1.502086000000000E-01 -1.420977752398252E+01 -4.647556061003437E+00  5.014394367586794E+00 -7.599534448969827E+00  2.448131303269163E-01
  7.532077841460705E-03 -1.506416033953428E-02 -5.272454023361206E-02  8.120632000000000E-01 -5.686306000000000E-01  1.311964000000000E-01 -1.535453015019022E+01 -4.273861106806056E+00  7.055518164090037E+00 -9.112942099516935E+00  2.301423056758746E-01
  1.129812002182007E-02 -1.129812002182007E-02 -5.272454023361206E-02  8.403162000000000E-01 -5.313129000000000E-01  1.075885000000000E-01 -1.725967002327176E+01 -4.366465953037758E+00  8.983342192250236E+00 -1.121711632749896E+01  2.107775074848776E-01
  1.506416033953428E-02 -7.532077841460705E-03 -5.272454023361206E-02  8.669896000000000E-01 -4.919533000000000E-01  7.944176000000000E-02 -1.805875529993421E+01 -4.607876775793947E+00  1.081597872511548E+01 -1.253065246209691E+01  1.881890966234923E-01
  1.883018948137760E-02 -3.766038920730352E-03 -5.272454023361206E-02  8.884099000000000E-01 -4.562429000000000E-01  5.069801000000000E-02 -1.753426256056023E+01 -4.622745541168633E+00  1.147937971882109E+01 -1.288653590855762E+01  1.668566432496911E-01
 -1.883018948137760E-02 -3.766038920730352E-03 -5.272454023361206E-02  6.616050999999999E-01 -6.771892000000000E-01 -3.220146000000000E-01 -1.362477983853314E+01 -1.011282944278927E+01  3.437389837580084E+00 -3.272814661044208E+00  2.936736686310284E-01
 -1.506416033953428E-02 -7.532077841460705E-03 -5.272454023361206E-02  6.960755000000000E-01 -6.831130000000000E-01 -2.209878000000000E-01 -1.627974341352220E+01 -1.213762852311083E+01  4.837407276858228E+00 -4.109566694948251E+00  2.725491749701616E-01
 -1.129812002182007E-02 -1.129812002182007E-02 -5.272454023361206E-02  7.273904000000000E-01 -6.769950000000000E-01 -1.121654000000000E-01 -1.696048644150142E+01 -1.205297839664154E+01  5.533009093623264E+00 -4.797701085433841E+00  2.549195162667814E-01
 -7.532077841460705E-03 -1.506416033953428E-02 -5.272454023361206E-02  7.504564000000000E-01 -6.609048000000000E-01 -4.471642000000000E-03 -1.686023536501432E+01 -1.187582236794768E+01  5.035486175275052E+00 -4.826600419729122E+00  2.460164320810393E-01
 -3.766038920730352E-03 -1.883018948137760E-02 -5.272454023361206E-02  7.635005000000000E-01 -6.381809000000001E-01  9.895519999999999E-02 -1.509152718223285E+01 -1.024084076233135E+01  3.960119611277248E+00 -4.595005146779201E+00  2.471102017129372E-01
  2.594381943345070E-02  0.000000000000000E+00 -4.937694966793060E-02  9.299264000000000E-01 -3.508642000000000E-01  1.101419000000000E-01 -2.361430994062680E+01 -9.524350943319586E+00  1.585386357282768E+01 -1.687164180107219E+01  1.184412937600280E-01
  2.929140999913216E-02  0.000000000000000E+00 -4.602935910224915E-02  9.507399000000000E-01 -2.437908000000000E-01  1.914670000000000E-01 -2.652070411166029E+01 -1.140552992634012E+01  1.659472289251277E+01 -1.925638650182235E+01  8.903848744583936E-02
  3.263900056481361E-02  0.000000000000000E+00 -4.268176853656769E-02  9.533150000000000E-01 -1.211894000000000E-01  2.765928000000000E-01 -2.790168574305148E+01 -1.454852214265065E+01  1.656716672678182E+01 -2.025360984175515E+01  8.399840541442072E-02
  3.598659113049507E-02  0.000000000000000E+00 -3.933418169617653E-02  9.326447000000000E-01  6.607525000000000E-03  3.607357000000000E-01 -2.687998239279322E+01 -1.734974649034573E+01  1.557917048477213E+01 -1.956414902816692E+01  1.132343048665247E-01
  3.933418169617653E-02  0.000000000000000E+00 -3.598659113049507E-02  8.887419000000000E-01  1.301473000000000E-01  4.395447000000000E-01 -2.425446807957736E+01 -1.958165813769237E+01  1.431145316580561E+01 -1.781393859234855E+01  1.692523951940200E-01
  4.268176853656769E-02  0.000000000000000E+00 -3.263900056481361E-02  8.262550000000000E-01  2.429152000000000E-01  5.082272000000000E-01 -2.087535462010705E+01 -2.049046087159297E+01  1.337447531409307E+01 -1.542853839200109E+01  2.318630970237702E-01
  4.602935910224915E-02  0.000000000000000E+00 -2.929140999913216E-02  7.509980000000001E-01  3.427239000000000E-01  5.643956000000000E-01 -1.763336941776835E+01 -2.031123931144742E+01  1.252968403636841E+01 -1.313207377714120E+01  2.833201148574380E-01
  4.937694966793060E-02  0.000000000000000E+00 -2.594381943345070E-02  6.694933000000000E-01  4.289814000000000E-01  6.064270000000000E-01 -1.490927072046692E+01 -1.834653413183888E+01  1.112641221954803E+01 -1.110462196919895E+01  3.149948404227935E-01
  5.272454023361206E-02 -3.766038920730352E-03 -1.883018948137760E-02  5.611718000000000E-01  5.178646000000000E-01  6.456799000000000E-01 -1.278874552304949E+01 -1.621298560600428E+01  5.775336488335114E+00 -1.184379596431622E+01  3.275495313365632E-01
  5.272454023361206E-02 -7.532077841460705E-03 -1.506416033953428E-02  5.135904000000000E-01  5.464267000000000E-01  6.615457000000000E-01 -1.142147052520322E+01 -1.657397953705870E+01  5.304785790765779E+00 -1.141306433062765E+01  3.248701296701001E-01
  5.272454023361206E-02 -1.129812002182007E-02 -1.129812002182007E-02  4.682428000000000E-01  5.740582000000000E-01  6.717186000000001E-01 -9.249952802599672E+00 -1.551709183268287E+01  5.282283349805224E+00 -9.690729630327272E+00  3.198718232955373E-01
  5.272454023361206E-02 -1.506416033953428E-02 -7.532077841460705E-03  4.311276000000000E-01  5.980712000000000E-01  6.756033000000000E-01 -7.237009367742351E+00 -1.480110616440563E+01  5.963684514891407E+00 -7.943104866546216E+00  3.145865624306398E-01
  5.272454023361206E-02 -1.883018948137760E-02 -3.766038920730352E-03  3.992545000000000E-01  6.234822000000000E-01  6.722096000000000E-01 -4.645305450284983E+00 -1.240448834258981E+01  6.592761651410410E+00 -5.156919114023120E+00  3.096483038760783E-01
  4.937694966793060E-02 -2.594381943345070E-02  0.000000000000000E+00  4.283266000000000E-01  6.307102999999999E-01  6.471019000000000E-01 -2.361346272481955E+00 -1.092313266725368E+01  9.152189722705826E+00 -1.978360343094824E+00  3.163779591075392E-01
  4.602935910224915E-02 -2.929140999913216E-02  0.000000000000000E+00  4.713990000000000E-01  6.169147000000000E-01  6.302375000000000E-01 -2.864720593202657E+00 -9.682742617545205E+00  9.334294721199461E+00 -1.441030110643310E+00  3.240041598591036E-01
  4.268176853656769E-02 -3.263900056481361E-02  0.000000000000000E+00  5.103217000000000E-01  5.984614000000000E-01  6.175887000000000E-01 -4.364608708783077E+00 -8.497232739490405E+00  9.397016858937601E+00 -1.509128911712892E+00  3.292116823056159E-01
  3.933418169617653E-02 -3.598659113049507E-02  0.000000000000000E+00  5.453456000000000E-01  5.735070000000000E-01  6.113002000000000E-01 -5.548978725078838E+00 -7.076918869736836E+00  9.367784575815122E+00 -1.358245057688818E+00  3.318637556724995E-01
  3.598659113049507E-02 -3.933418169617653E-02  0.000000000000000E+00  5.743583000000000E-01  5.445932000000000E-01  6.111717000000000E-01 -7.180170296520854E+00 -5.650449624857975E+00  9.547217485912686E+00 -1.366197706725436E+00  3.318441178937142E-01
  3.263900056481361E-02 -4.268176853656769E-02  0.000000000000000E+00  5.983016000000000E-01  5.099836000000000E-01  6.180226000000000E-01 -8.395264205489219E+00 -4.006425901929221E+00  9.575790309369358E+00 -1.148056687114786E+00  3.291653051047040E-01
  2.929140999913216E-02 -4.602935910224915E-02  0.000000000000000E+00  6.179465000000000E-01  4.698722000000000E-01  6.303666999999999E-01 -9.788448691639269E+00 -2.936772181592297E+00  9.210745280808798E+00 -1.622498108087623E+00  3.237720526320697E-01
  2.594381943345070E-02 -4.937694966793060E-02  0.000000000000000E+00  6.313827000000000E-01  4.256925000000000E-01  6.481834000000000E-01 -1.062827098978780E+01 -2.192029554163363E+00  9.076993780502352E+00 -1.760080284424715E+00  3.158626269403896E-01
  1.883018948137760E-02 -5.272454023361206E-02 -3.766038920730352E-03  6.626995000000000E-01  3.204164000000000E-01  6.768771000000000E-01 -1.425375823175806E+01 -3.665318323894902E+00  1.038381424239865E+01 -3.591820484169889E+00  2.933378696408588E-01
  1.506416033953428E-02 -5.272454023361206E-02 -7.532077841460705E-03  6.972834000000000E-01  2.201197000000000E-01  6.821606000000000E-01 -1.622558688461405E+01 -4.865754857630203E+00  1.199855894089859E+01 -4.199936723175448E+00  2.723568429492629E-01
  1.129812002182007E-02 -5.272454023361206E-02 -1.129812002182007E-02  7.284253000000001E-01  1.118725000000000E-01  6.759298000000000E-01 -1.681661412010826E+01 -5.273838114823782E+00  1.241148717608126E+01 -4.450350595293555E+00  2.547815209818829E-01
  7.532077841460705E-03 -5.272454023361206E-02 -1.506416033953428E-02  7.499960000000000E-01  2.441664000000000E-03  6.614379000000000E-01 -1.708077944301622E+01 -5.283481223133714E+00  1.156354718144410E+01 -5.174848380796287E+00  2.460970831492951E-01
  3.766038920730352E-03 -5.272454023361206E-02 -1.883018948137760E-02  7.640863000000000E-01 -9.965280999999999E-02  6.373707000000000E-01 -1.481402565574766E+01 -4.007165045646286E+00  9.858944499810274E+00 -4.636066437367647E+00  2.470071563494666E-01
  0.000000000000000E+00 -4.937694966793060E-02 -2.594381943345070E-02  7.636199000000000E-01 -2.302696000000000E-01  6.032085000000000E-01 -1.616249447772701E+01 -3.386860842467045E+00  6.657703488045401E+00 -7.546127990913270E+00  2.623852366106936E-01
  0.000000000000000E+00 -4.602935910224915E-02 -2.929140999913216E-02  7.580950000000000E-01 -3.057269000000000E-01  5.760409000000000E-01 -1.872470861385105E+01 -3.557773429944000E+00  6.188849982046301E+00 -9.542370221355329E+00  2.754338285827791E-01
  0.000000000000000E+00 -4.268176853656769E-02 -3.263900056481361E-02  7.582487000000000E-01 -3.720142000000000E-01  5.354105000000000E-01 -1.855070704429730E+01 -4.535688288482252E+00  6.010650579892156E+00 -9.160543618024825E+00  2.840566029792059E-01
  0.000000000000000E+00 -3.933418169617653E-02 -3.598659113049507E-02  7.574176000000000E-01 -4.339804000000000E-01  4.878315000000000E-01 -1.891580182567800E+01 -5.234573422453025E+00  5.629342669493067E+00 -9.309288274702306E+00  2.893918881602089E-01
  0.000000000000000E+00 -3.598659113049507E-02 -3.933418169617653E-02  7.561076000000000E-01 -4.911907000000000E-01  4.324731000000000E-01 -1.913797619225153E+01 -5.449843555461334E+00  5.207791939809285E+00 -9.541226852318566E+00  2.899844312002050E-01
  0.000000000000000E+00 -3.263900056481361E-02 -4.268176853656769E-02  7.582436000000000E-01 -5.363952000000000E-01  3.706034000000000E-01 -1.849838677166770E+01 -6.299691962402743E+00  4.486858023296137E+00 -8.984314011079459E+00  2.839023901018864E-01
  0.000000000000000E+00 -2.929140999913216E-02 -4.602935910224915E-02  7.599996000000000E-01 -5.761731000000000E-01  3.007078000000000E-01 -1.773748342050759E+01 -6.673221033724582E+00  3.873472405641802E+00 -8.470766489144852E+00  2.739972677349272E-01
  0.000000000000000E+00 -2.594381943345070E-02 -4.937694966793060E-02  7.634074000000000E-01 -6.044015000000000E-01  2.278333000000000E-01 -1.614527956789887E+01 -6.763616716011207E+00  3.645260521710856E+00 -7.406974074599449E+00  2.621077132404709E-01